# LAMMPS data file written by OVITO Basic 3.7.12
2920 atoms
2 atom types
0.0 7.5809845924 xlo xhi
0.0 15.1619691849 ylo yhi
0.0 210.531900 zlo zhi 

Masses
 
1 12.0107  # C
2 26.981538  # Al

 
Atoms  # atomic

1	1	7.377766	1.152203	0.902538
2	1	7.382737	15.141384	1.874481
3	1	1.054872	15.102273	2.743557
4	1	1.017188	0.798297	0.102932
5	1	2.259768	1.129609	0.920702
6	1	2.291009	15.129439	1.849532
7	1	3.564682	0.038835	2.656317
8	1	3.541847	0.880410	0.087223
9	1	4.858806	1.237130	0.887594
10	1	4.837938	0.057461	1.839509
11	1	6.116183	0.020728	2.675989
12	1	6.116576	0.887897	0.082935
13	1	7.369267	3.884105	0.805158
14	1	7.396374	2.524002	1.693572
15	1	1.059757	2.465973	2.607167
16	1	1.108420	4.207607	0.117716
17	1	2.355743	3.755499	0.852524
18	1	2.313421	2.416740	1.686364
19	1	3.570148	2.538811	2.599835
20	1	4.842576	3.881203	0.858423
21	1	4.847048	2.549910	1.685478
22	1	6.109955	2.578279	2.594187
23	1	6.102410	4.347389	0.098846
24	1	7.377142	6.277142	0.896238
25	1	7.378174	5.086697	1.805375
26	1	1.026194	5.048005	2.700324
27	1	1.094571	5.910261	0.160522
28	1	2.320144	6.279142	0.949271
29	1	2.367930	5.019875	1.842287
30	1	3.561913	5.074357	2.722390
31	1	3.542543	6.703139	0.144086
32	1	4.820163	6.326581	0.930466
33	1	4.792077	5.106046	1.850055
34	1	6.139114	5.119654	2.673648
35	1	6.116367	5.974107	0.103122
36	1	7.412982	8.914334	0.900717
37	1	7.364129	7.595300	1.725520
38	1	0.997303	7.564164	2.682756
39	1	1.084797	9.159126	0.065189
40	1	2.276208	8.724043	0.908867
41	1	2.217715	7.498711	1.808986
42	1	3.520117	7.563940	2.696688
43	1	3.576240	8.353491	0.082969
44	1	4.859911	8.802103	0.953483
45	1	4.875425	7.570628	1.825272
46	1	6.126511	7.611075	2.648600
47	1	6.145458	9.196855	0.062399
48	1	7.457232	11.226171	0.831642
49	1	7.401100	10.109659	1.871522
50	1	1.062881	10.095363	2.712136
51	1	1.121427	10.871927	0.015469
52	1	2.413200	11.199606	0.773453
53	1	2.351685	10.028556	1.769146
54	1	3.573174	10.051382	2.649672
55	1	4.920305	11.257922	0.828083
56	1	4.824932	10.092095	1.814030
57	1	6.124926	10.139143	2.668096
58	1	6.184573	10.841776	0.050157
59	1	7.357589	13.975326	0.908230
60	1	7.409199	12.653120	1.647182
61	1	1.106681	12.597900	2.559534
62	1	1.028794	14.291119	0.090538
63	1	2.333550	13.978772	0.871277
64	1	2.364850	12.566778	1.637857
65	1	3.568840	12.606253	2.562334
66	1	3.590998	14.347979	0.023254
67	1	4.894878	14.017304	0.857272
68	1	4.857997	12.623156	1.632297
69	1	6.123866	12.616140	2.525880
70	1	6.112481	14.360163	0.069333
71	1	7.378396	1.264690	4.483447
72	1	7.354819	15.150996	5.365962
73	1	1.083992	0.027580	6.222923
74	1	1.057883	1.206061	3.607613
75	1	2.322899	1.313026	4.513344
76	1	2.334026	0.017315	5.339637
77	1	3.567024	0.007053	6.259343
78	1	3.603503	1.296224	3.615165
79	1	4.875128	1.291486	4.479560
80	1	4.817183	0.011442	5.343014
81	1	6.079781	15.140049	6.245687
82	1	6.113599	1.307959	3.564442
83	1	7.317212	3.763494	4.476833
84	1	7.357374	2.521792	5.361122
85	1	1.002772	2.557383	6.294662
86	1	0.985871	3.755501	3.578982
87	1	2.231609	3.830712	4.486617
88	1	2.232103	2.598569	5.421808
89	1	3.564506	2.580399	6.271167
90	1	3.514361	3.766191	3.589346
91	1	4.797572	3.775602	4.455001
92	1	4.861029	2.563634	5.367955
93	1	6.104651	2.522413	6.255750
94	1	6.076574	3.813397	3.578769
95	1	7.346480	6.328865	4.492776
96	1	7.334855	5.038200	5.373936
97	1	1.010685	5.059433	6.285347
98	1	0.990115	6.337534	3.641798
99	1	2.263505	6.367412	4.504783
100	1	2.258234	5.096999	5.397908
101	1	3.541822	5.086261	6.257953
102	1	3.531614	6.334113	3.630705
103	1	4.824863	6.361578	4.478729
104	1	4.807091	5.061446	5.347516
105	1	6.070568	5.058136	6.245519
106	1	6.109049	6.352776	3.595743
107	1	7.373842	8.862037	4.544498
108	1	7.353727	7.599785	5.403145
109	1	1.032898	7.605799	6.310091
110	1	1.033811	8.827860	3.631512
111	1	2.287265	8.869575	4.489203
112	1	2.286052	7.624261	5.388142
113	1	3.570766	7.605903	6.267637
114	1	3.523352	8.840308	3.576622
115	1	4.803539	8.901071	4.464934
116	1	4.815406	7.649844	5.363446
117	1	6.103016	7.584169	6.213548
118	1	6.120315	8.872137	3.583708
119	1	7.374772	11.368534	4.461888
120	1	7.394502	10.152264	5.419158
121	1	1.070247	10.152325	6.309120
122	1	1.054758	11.369243	3.556806
123	1	2.287849	11.375935	4.432219
124	1	2.281071	10.134610	5.352459
125	1	3.548840	10.088946	6.263723
126	1	3.550449	11.354805	3.531497
127	1	4.831345	11.360197	4.435608
128	1	4.841743	10.128821	5.355249
129	1	6.130359	10.115386	6.261549
130	1	6.102528	11.377341	3.568594
131	1	7.366225	13.874344	4.452176
132	1	7.389695	12.640555	5.334027
133	1	1.106588	12.643275	6.201351
134	1	1.073682	13.825180	3.568987
135	1	2.346750	13.857457	4.413200
136	1	2.345638	12.614273	5.320513
137	1	3.613865	12.564450	6.220462
138	1	3.573881	13.863112	3.524336
139	1	4.846891	13.864804	4.445616
140	1	4.878983	12.578321	5.341170
141	1	6.155726	12.626810	6.237259
142	1	6.108582	13.861190	3.541946
143	1	7.378396	1.264690	8.091447
144	1	7.354819	15.150996	8.973962
145	1	1.083992	0.027580	9.830923
146	1	1.057883	1.206061	7.215613
147	1	2.322899	1.313026	8.121344
148	1	2.334026	0.017315	8.947637
149	1	3.567024	0.007053	9.867343
150	1	3.603503	1.296224	7.223165
151	1	4.875128	1.291486	8.087560
152	1	4.817183	0.011442	8.951014
153	1	6.079781	15.140049	9.853687
154	1	6.113599	1.307959	7.172442
155	1	7.317212	3.763494	8.084833
156	1	7.357374	2.521792	8.969122
157	1	1.002772	2.557383	9.902662
158	1	0.985871	3.755501	7.186982
159	1	2.231609	3.830712	8.094617
160	1	2.232103	2.598569	9.029808
161	1	3.564506	2.580399	9.879167
162	1	3.514361	3.766191	7.197346
163	1	4.797572	3.775602	8.063001
164	1	4.861029	2.563634	8.975955
165	1	6.104651	2.522413	9.863750
166	1	6.076574	3.813397	7.186769
167	1	7.346480	6.328865	8.100776
168	1	7.334855	5.038200	8.981936
169	1	1.010685	5.059433	9.893347
170	1	0.990115	6.337534	7.249798
171	1	2.263505	6.367412	8.112783
172	1	2.258234	5.096999	9.005908
173	1	3.541822	5.086261	9.865953
174	1	3.531614	6.334113	7.238705
175	1	4.824863	6.361578	8.086729
176	1	4.807091	5.061446	8.955516
177	1	6.070568	5.058136	9.853519
178	1	6.109049	6.352776	7.203743
179	1	7.373842	8.862037	8.152498
180	1	7.353727	7.599785	9.011145
181	1	1.032898	7.605799	9.918091
182	1	1.033811	8.827860	7.239512
183	1	2.287265	8.869575	8.097203
184	1	2.286052	7.624261	8.996142
185	1	3.570766	7.605903	9.875637
186	1	3.523352	8.840308	7.184622
187	1	4.803539	8.901071	8.072934
188	1	4.815406	7.649844	8.971446
189	1	6.103016	7.584169	9.821548
190	1	6.120315	8.872137	7.191708
191	1	7.374772	11.368534	8.069888
192	1	7.394502	10.152264	9.027158
193	1	1.070247	10.152325	9.917120
194	1	1.054758	11.369243	7.164806
195	1	2.287849	11.375935	8.040219
196	1	2.281071	10.134610	8.960459
197	1	3.548840	10.088946	9.871723
198	1	3.550449	11.354805	7.139497
199	1	4.831345	11.360197	8.043608
200	1	4.841743	10.128821	8.963249
201	1	6.130359	10.115386	9.869549
202	1	6.102528	11.377341	7.176594
203	1	7.366225	13.874344	8.060176
204	1	7.389695	12.640555	8.942027
205	1	1.106588	12.643275	9.809351
206	1	1.073682	13.825180	7.176987
207	1	2.346750	13.857457	8.021200
208	1	2.345638	12.614273	8.928513
209	1	3.613865	12.564450	9.828462
210	1	3.573881	13.863112	7.132336
211	1	4.846891	13.864804	8.053616
212	1	4.878983	12.578321	8.949170
213	1	6.155726	12.626810	9.845259
214	1	6.108582	13.861190	7.149946
215	1	7.378396	1.264690	11.699447
216	1	7.354819	15.150996	12.581962
217	1	1.083992	0.027580	13.438923
218	1	1.057883	1.206061	10.823613
219	1	2.322899	1.313026	11.729344
220	1	2.334026	0.017315	12.555637
221	1	3.567024	0.007053	13.475343
222	1	3.603503	1.296224	10.831165
223	1	4.875128	1.291486	11.695560
224	1	4.817183	0.011442	12.559014
225	1	6.079781	15.140049	13.461687
226	1	6.113599	1.307959	10.780442
227	1	7.317212	3.763494	11.692833
228	1	7.357374	2.521792	12.577122
229	1	1.002772	2.557383	13.510662
230	1	0.985871	3.755501	10.794982
231	1	2.231609	3.830712	11.702617
232	1	2.232103	2.598569	12.637808
233	1	3.564506	2.580399	13.487167
234	1	3.514361	3.766191	10.805346
235	1	4.797572	3.775602	11.671001
236	1	4.861029	2.563634	12.583955
237	1	6.104651	2.522413	13.471750
238	1	6.076574	3.813397	10.794769
239	1	7.346480	6.328865	11.708776
240	1	7.334855	5.038200	12.589936
241	1	1.010685	5.059433	13.501347
242	1	0.990115	6.337534	10.857798
243	1	2.263505	6.367412	11.720783
244	1	2.258234	5.096999	12.613908
245	1	3.541822	5.086261	13.473953
246	1	3.531614	6.334113	10.846705
247	1	4.824863	6.361578	11.694729
248	1	4.807091	5.061446	12.563516
249	1	6.070568	5.058136	13.461519
250	1	6.109049	6.352776	10.811743
251	1	7.373842	8.862037	11.760498
252	1	7.353727	7.599785	12.619145
253	1	1.032898	7.605799	13.526091
254	1	1.033811	8.827860	10.847512
255	1	2.287265	8.869575	11.705203
256	1	2.286052	7.624261	12.604142
257	1	3.570766	7.605903	13.483637
258	1	3.523352	8.840308	10.792622
259	1	4.803539	8.901071	11.680934
260	1	4.815406	7.649844	12.579446
261	1	6.103016	7.584169	13.429548
262	1	6.120315	8.872137	10.799708
263	1	7.374772	11.368534	11.677888
264	1	7.394502	10.152264	12.635158
265	1	1.070247	10.152325	13.525120
266	1	1.054758	11.369243	10.772806
267	1	2.287849	11.375935	11.648219
268	1	2.281071	10.134610	12.568459
269	1	3.548840	10.088946	13.479723
270	1	3.550449	11.354805	10.747497
271	1	4.831345	11.360197	11.651608
272	1	4.841743	10.128821	12.571249
273	1	6.130359	10.115386	13.477549
274	1	6.102528	11.377341	10.784594
275	1	7.366225	13.874344	11.668176
276	1	7.389695	12.640555	12.550027
277	1	1.106588	12.643275	13.417351
278	1	1.073682	13.825180	10.784987
279	1	2.346750	13.857457	11.629200
280	1	2.345638	12.614273	12.536513
281	1	3.613865	12.564450	13.436462
282	1	3.573881	13.863112	10.740336
283	1	4.846891	13.864804	11.661616
284	1	4.878983	12.578321	12.557170
285	1	6.155726	12.626810	13.453259
286	1	6.108582	13.861190	10.757946
287	1	7.378396	1.264690	15.307447
288	1	7.354819	15.150996	16.189962
289	1	1.083992	0.027580	17.046923
290	1	1.057883	1.206061	14.431613
291	1	2.322899	1.313026	15.337344
292	1	2.334026	0.017315	16.163637
293	1	3.567024	0.007053	17.083343
294	1	3.603503	1.296224	14.439165
295	1	4.875128	1.291486	15.303560
296	1	4.817183	0.011442	16.167014
297	1	6.079781	15.140049	17.069687
298	1	6.113599	1.307959	14.388442
299	1	7.317212	3.763494	15.300833
300	1	7.357374	2.521792	16.185122
301	1	1.002772	2.557383	17.118662
302	1	0.985871	3.755501	14.402982
303	1	2.231609	3.830712	15.310617
304	1	2.232103	2.598569	16.245808
305	1	3.564506	2.580399	17.095167
306	1	3.514361	3.766191	14.413346
307	1	4.797572	3.775602	15.279001
308	1	4.861029	2.563634	16.191955
309	1	6.104651	2.522413	17.079750
310	1	6.076574	3.813397	14.402769
311	1	7.346480	6.328865	15.316776
312	1	7.334855	5.038200	16.197936
313	1	1.010685	5.059433	17.109347
314	1	0.990115	6.337534	14.465798
315	1	2.263505	6.367412	15.328783
316	1	2.258234	5.096999	16.221908
317	1	3.541822	5.086261	17.081953
318	1	3.531614	6.334113	14.454705
319	1	4.824863	6.361578	15.302729
320	1	4.807091	5.061446	16.171516
321	1	6.070568	5.058136	17.069519
322	1	6.109049	6.352776	14.419743
323	1	7.373842	8.862037	15.368498
324	1	7.353727	7.599785	16.227145
325	1	1.032898	7.605799	17.134091
326	1	1.033811	8.827860	14.455512
327	1	2.287265	8.869575	15.313203
328	1	2.286052	7.624261	16.212142
329	1	3.570766	7.605903	17.091637
330	1	3.523352	8.840308	14.400622
331	1	4.803539	8.901071	15.288934
332	1	4.815406	7.649844	16.187446
333	1	6.103016	7.584169	17.037548
334	1	6.120315	8.872137	14.407708
335	1	7.374772	11.368534	15.285888
336	1	7.394502	10.152264	16.243158
337	1	1.070247	10.152325	17.133120
338	1	1.054758	11.369243	14.380806
339	1	2.287849	11.375935	15.256219
340	1	2.281071	10.134610	16.176459
341	1	3.548840	10.088946	17.087723
342	1	3.550449	11.354805	14.355497
343	1	4.831345	11.360197	15.259608
344	1	4.841743	10.128821	16.179249
345	1	6.130359	10.115386	17.085549
346	1	6.102528	11.377341	14.392594
347	1	7.366225	13.874344	15.276176
348	1	7.389695	12.640555	16.158027
349	1	1.106588	12.643275	17.025351
350	1	1.073682	13.825180	14.392987
351	1	2.346750	13.857457	15.237200
352	1	2.345638	12.614273	16.144513
353	1	3.613865	12.564450	17.044462
354	1	3.573881	13.863112	14.348336
355	1	4.846891	13.864804	15.269616
356	1	4.878983	12.578321	16.165170
357	1	6.155726	12.626810	17.061259
358	1	6.108582	13.861190	14.365946
359	1	7.378396	1.264690	18.915447
360	1	7.354819	15.150996	19.797962
361	1	1.083992	0.027580	20.654923
362	1	1.057883	1.206061	18.039613
363	1	2.322899	1.313026	18.945344
364	1	2.334026	0.017315	19.771637
365	1	3.567024	0.007053	20.691343
366	1	3.603503	1.296224	18.047165
367	1	4.875128	1.291486	18.911560
368	1	4.817183	0.011442	19.775014
369	1	6.079781	15.140049	20.677687
370	1	6.113599	1.307959	17.996442
371	1	7.317212	3.763494	18.908833
372	1	7.357374	2.521792	19.793122
373	1	1.002772	2.557383	20.726662
374	1	0.985871	3.755501	18.010982
375	1	2.231609	3.830712	18.918617
376	1	2.232103	2.598569	19.853808
377	1	3.564506	2.580399	20.703167
378	1	3.514361	3.766191	18.021346
379	1	4.797572	3.775602	18.887001
380	1	4.861029	2.563634	19.799955
381	1	6.104651	2.522413	20.687750
382	1	6.076574	3.813397	18.010769
383	1	7.346480	6.328865	18.924776
384	1	7.334855	5.038200	19.805936
385	1	1.010685	5.059433	20.717347
386	1	0.990115	6.337534	18.073798
387	1	2.263505	6.367412	18.936783
388	1	2.258234	5.096999	19.829908
389	1	3.541822	5.086261	20.689953
390	1	3.531614	6.334113	18.062705
391	1	4.824863	6.361578	18.910729
392	1	4.807091	5.061446	19.779516
393	1	6.070568	5.058136	20.677519
394	1	6.109049	6.352776	18.027743
395	1	7.373842	8.862037	18.976498
396	1	7.353727	7.599785	19.835145
397	1	1.032898	7.605799	20.742091
398	1	1.033811	8.827860	18.063512
399	1	2.287265	8.869575	18.921203
400	1	2.286052	7.624261	19.820142
401	1	3.570766	7.605903	20.699637
402	1	3.523352	8.840308	18.008622
403	1	4.803539	8.901071	18.896934
404	1	4.815406	7.649844	19.795446
405	1	6.103016	7.584169	20.645548
406	1	6.120315	8.872137	18.015708
407	1	7.374772	11.368534	18.893888
408	1	7.394502	10.152264	19.851158
409	1	1.070247	10.152325	20.741120
410	1	1.054758	11.369243	17.988806
411	1	2.287849	11.375935	18.864219
412	1	2.281071	10.134610	19.784459
413	1	3.548840	10.088946	20.695723
414	1	3.550449	11.354805	17.963497
415	1	4.831345	11.360197	18.867608
416	1	4.841743	10.128821	19.787249
417	1	6.130359	10.115386	20.693549
418	1	6.102528	11.377341	18.000594
419	1	7.366225	13.874344	18.884176
420	1	7.389695	12.640555	19.766027
421	1	1.106588	12.643275	20.633351
422	1	1.073682	13.825180	18.000987
423	1	2.346750	13.857457	18.845200
424	1	2.345638	12.614273	19.752513
425	1	3.613865	12.564450	20.652462
426	1	3.573881	13.863112	17.956336
427	1	4.846891	13.864804	18.877616
428	1	4.878983	12.578321	19.773170
429	1	6.155726	12.626810	20.669259
430	1	6.108582	13.861190	17.973946
431	1	7.378396	1.264690	22.523447
432	1	7.354819	15.150996	23.405962
433	1	1.083992	0.027580	24.262923
434	1	1.057883	1.206061	21.647613
435	1	2.322899	1.313026	22.553344
436	1	2.334026	0.017315	23.379637
437	1	3.567024	0.007053	24.299343
438	1	3.603503	1.296224	21.655165
439	1	4.875128	1.291486	22.519560
440	1	4.817183	0.011442	23.383014
441	1	6.079781	15.140049	24.285687
442	1	6.113599	1.307959	21.604442
443	1	7.317212	3.763494	22.516833
444	1	7.357374	2.521792	23.401122
445	1	1.002772	2.557383	24.334662
446	1	0.985871	3.755501	21.618982
447	1	2.231609	3.830712	22.526617
448	1	2.232103	2.598569	23.461808
449	1	3.564506	2.580399	24.311167
450	1	3.514361	3.766191	21.629346
451	1	4.797572	3.775602	22.495001
452	1	4.861029	2.563634	23.407955
453	1	6.104651	2.522413	24.295750
454	1	6.076574	3.813397	21.618769
455	1	7.346480	6.328865	22.532776
456	1	7.334855	5.038200	23.413936
457	1	1.010685	5.059433	24.325347
458	1	0.990115	6.337534	21.681798
459	1	2.263505	6.367412	22.544783
460	1	2.258234	5.096999	23.437908
461	1	3.541822	5.086261	24.297953
462	1	3.531614	6.334113	21.670705
463	1	4.824863	6.361578	22.518729
464	1	4.807091	5.061446	23.387516
465	1	6.070568	5.058136	24.285519
466	1	6.109049	6.352776	21.635743
467	1	7.373842	8.862037	22.584498
468	1	7.353727	7.599785	23.443145
469	1	1.032898	7.605799	24.350091
470	1	1.033811	8.827860	21.671512
471	1	2.287265	8.869575	22.529203
472	1	2.286052	7.624261	23.428142
473	1	3.570766	7.605903	24.307637
474	1	3.523352	8.840308	21.616622
475	1	4.803539	8.901071	22.504934
476	1	4.815406	7.649844	23.403446
477	1	6.103016	7.584169	24.253548
478	1	6.120315	8.872137	21.623708
479	1	7.374772	11.368534	22.501888
480	1	7.394502	10.152264	23.459158
481	1	1.070247	10.152325	24.349120
482	1	1.054758	11.369243	21.596806
483	1	2.287849	11.375935	22.472219
484	1	2.281071	10.134610	23.392459
485	1	3.548840	10.088946	24.303723
486	1	3.550449	11.354805	21.571497
487	1	4.831345	11.360197	22.475608
488	1	4.841743	10.128821	23.395249
489	1	6.130359	10.115386	24.301549
490	1	6.102528	11.377341	21.608594
491	1	7.366225	13.874344	22.492176
492	1	7.389695	12.640555	23.374027
493	1	1.106588	12.643275	24.241351
494	1	1.073682	13.825180	21.608987
495	1	2.346750	13.857457	22.453200
496	1	2.345638	12.614273	23.360513
497	1	3.613865	12.564450	24.260462
498	1	3.573881	13.863112	21.564336
499	1	4.846891	13.864804	22.485616
500	1	4.878983	12.578321	23.381170
501	1	6.155726	12.626810	24.277259
502	1	6.108582	13.861190	21.581946
503	1	7.378396	1.264690	26.131447
504	1	7.354819	15.150996	27.013962
505	1	1.083992	0.027580	27.870923
506	1	1.057883	1.206061	25.255613
507	1	2.322899	1.313026	26.161344
508	1	2.334026	0.017315	26.987637
509	1	3.567024	0.007053	27.907343
510	1	3.603503	1.296224	25.263165
511	1	4.875128	1.291486	26.127560
512	1	4.817183	0.011442	26.991014
513	1	6.079781	15.140049	27.893687
514	1	6.113599	1.307959	25.212442
515	1	7.317212	3.763494	26.124833
516	1	7.357374	2.521792	27.009122
517	1	1.002772	2.557383	27.942662
518	1	0.985871	3.755501	25.226982
519	1	2.231609	3.830712	26.134617
520	1	2.232103	2.598569	27.069808
521	1	3.564506	2.580399	27.919167
522	1	3.514361	3.766191	25.237346
523	1	4.797572	3.775602	26.103001
524	1	4.861029	2.563634	27.015955
525	1	6.104651	2.522413	27.903750
526	1	6.076574	3.813397	25.226769
527	1	7.346480	6.328865	26.140776
528	1	7.334855	5.038200	27.021936
529	1	1.010685	5.059433	27.933347
530	1	0.990115	6.337534	25.289798
531	1	2.263505	6.367412	26.152783
532	1	2.258234	5.096999	27.045908
533	1	3.541822	5.086261	27.905953
534	1	3.531614	6.334113	25.278705
535	1	4.824863	6.361578	26.126729
536	1	4.807091	5.061446	26.995516
537	1	6.070568	5.058136	27.893519
538	1	6.109049	6.352776	25.243743
539	1	7.373842	8.862037	26.192498
540	1	7.353727	7.599785	27.051145
541	1	1.032898	7.605799	27.958091
542	1	1.033811	8.827860	25.279512
543	1	2.287265	8.869575	26.137203
544	1	2.286052	7.624261	27.036142
545	1	3.570766	7.605903	27.915637
546	1	3.523352	8.840308	25.224622
547	1	4.803539	8.901071	26.112934
548	1	4.815406	7.649844	27.011446
549	1	6.103016	7.584169	27.861548
550	1	6.120315	8.872137	25.231708
551	1	7.374772	11.368534	26.109888
552	1	7.394502	10.152264	27.067158
553	1	1.070247	10.152325	27.957120
554	1	1.054758	11.369243	25.204806
555	1	2.287849	11.375935	26.080219
556	1	2.281071	10.134610	27.000459
557	1	3.548840	10.088946	27.911723
558	1	3.550449	11.354805	25.179497
559	1	4.831345	11.360197	26.083608
560	1	4.841743	10.128821	27.003249
561	1	6.130359	10.115386	27.909549
562	1	6.102528	11.377341	25.216594
563	1	7.366225	13.874344	26.100176
564	1	7.389695	12.640555	26.982027
565	1	1.106588	12.643275	27.849351
566	1	1.073682	13.825180	25.216987
567	1	2.346750	13.857457	26.061200
568	1	2.345638	12.614273	26.968513
569	1	3.613865	12.564450	27.868462
570	1	3.573881	13.863112	25.172336
571	1	4.846891	13.864804	26.093616
572	1	4.878983	12.578321	26.989170
573	1	6.155726	12.626810	27.885259
574	1	6.108582	13.861190	25.189946
575	1	7.378396	1.264690	29.739447
576	1	7.354819	15.150996	30.621962
577	1	1.083992	0.027580	31.478923
578	1	1.057883	1.206061	28.863613
579	1	2.322899	1.313026	29.769344
580	1	2.334026	0.017315	30.595637
581	1	3.567024	0.007053	31.515343
582	1	3.603503	1.296224	28.871165
583	1	4.875128	1.291486	29.735560
584	1	4.817183	0.011442	30.599014
585	1	6.079781	15.140049	31.501687
586	1	6.113599	1.307959	28.820442
587	1	7.317212	3.763494	29.732833
588	1	7.357374	2.521792	30.617122
589	1	1.002772	2.557383	31.550662
590	1	0.985871	3.755501	28.834982
591	1	2.231609	3.830712	29.742617
592	1	2.232103	2.598569	30.677808
593	1	3.564506	2.580399	31.527167
594	1	3.514361	3.766191	28.845346
595	1	4.797572	3.775602	29.711001
596	1	4.861029	2.563634	30.623955
597	1	6.104651	2.522413	31.511750
598	1	6.076574	3.813397	28.834769
599	1	7.346480	6.328865	29.748776
600	1	7.334855	5.038200	30.629936
601	1	1.010685	5.059433	31.541347
602	1	0.990115	6.337534	28.897798
603	1	2.263505	6.367412	29.760783
604	1	2.258234	5.096999	30.653908
605	1	3.541822	5.086261	31.513953
606	1	3.531614	6.334113	28.886705
607	1	4.824863	6.361578	29.734729
608	1	4.807091	5.061446	30.603516
609	1	6.070568	5.058136	31.501519
610	1	6.109049	6.352776	28.851743
611	1	7.373842	8.862037	29.800498
612	1	7.353727	7.599785	30.659145
613	1	1.032898	7.605799	31.566091
614	1	1.033811	8.827860	28.887512
615	1	2.287265	8.869575	29.745203
616	1	2.286052	7.624261	30.644142
617	1	3.570766	7.605903	31.523637
618	1	3.523352	8.840308	28.832622
619	1	4.803539	8.901071	29.720934
620	1	4.815406	7.649844	30.619446
621	1	6.103016	7.584169	31.469548
622	1	6.120315	8.872137	28.839708
623	1	7.374772	11.368534	29.717888
624	1	7.394502	10.152264	30.675158
625	1	1.070247	10.152325	31.565120
626	1	1.054758	11.369243	28.812806
627	1	2.287849	11.375935	29.688219
628	1	2.281071	10.134610	30.608459
629	1	3.548840	10.088946	31.519723
630	1	3.550449	11.354805	28.787497
631	1	4.831345	11.360197	29.691608
632	1	4.841743	10.128821	30.611249
633	1	6.130359	10.115386	31.517549
634	1	6.102528	11.377341	28.824594
635	1	7.366225	13.874344	29.708176
636	1	7.389695	12.640555	30.590027
637	1	1.106588	12.643275	31.457351
638	1	1.073682	13.825180	28.824987
639	1	2.346750	13.857457	29.669200
640	1	2.345638	12.614273	30.576513
641	1	3.613865	12.564450	31.476462
642	1	3.573881	13.863112	28.780336
643	1	4.846891	13.864804	29.701616
644	1	4.878983	12.578321	30.597170
645	1	6.155726	12.626810	31.493259
646	1	6.108582	13.861190	28.797946
647	1	7.378396	1.264690	33.347447
648	1	7.354819	15.150996	34.229962
649	1	1.083992	0.027580	35.086923
650	1	1.057883	1.206061	32.471613
651	1	2.322899	1.313026	33.377344
652	1	2.334026	0.017315	34.203637
653	1	3.567024	0.007053	35.123343
654	1	3.603503	1.296224	32.479165
655	1	4.875128	1.291486	33.343560
656	1	4.817183	0.011442	34.207014
657	1	6.079781	15.140049	35.109687
658	1	6.113599	1.307959	32.428442
659	1	7.317212	3.763494	33.340833
660	1	7.357374	2.521792	34.225122
661	1	1.002772	2.557383	35.158662
662	1	0.985871	3.755501	32.442982
663	1	2.231609	3.830712	33.350617
664	1	2.232103	2.598569	34.285808
665	1	3.564506	2.580399	35.135167
666	1	3.514361	3.766191	32.453346
667	1	4.797572	3.775602	33.319001
668	1	4.861029	2.563634	34.231955
669	1	6.104651	2.522413	35.119750
670	1	6.076574	3.813397	32.442769
671	1	7.346480	6.328865	33.356776
672	1	7.334855	5.038200	34.237936
673	1	1.010685	5.059433	35.149347
674	1	0.990115	6.337534	32.505798
675	1	2.263505	6.367412	33.368783
676	1	2.258234	5.096999	34.261908
677	1	3.541822	5.086261	35.121953
678	1	3.531614	6.334113	32.494705
679	1	4.824863	6.361578	33.342729
680	1	4.807091	5.061446	34.211516
681	1	6.070568	5.058136	35.109519
682	1	6.109049	6.352776	32.459743
683	1	7.373842	8.862037	33.408498
684	1	7.353727	7.599785	34.267145
685	1	1.032898	7.605799	35.174091
686	1	1.033811	8.827860	32.495512
687	1	2.287265	8.869575	33.353203
688	1	2.286052	7.624261	34.252142
689	1	3.570766	7.605903	35.131637
690	1	3.523352	8.840308	32.440622
691	1	4.803539	8.901071	33.328934
692	1	4.815406	7.649844	34.227446
693	1	6.103016	7.584169	35.077548
694	1	6.120315	8.872137	32.447708
695	1	7.374772	11.368534	33.325888
696	1	7.394502	10.152264	34.283158
697	1	1.070247	10.152325	35.173120
698	1	1.054758	11.369243	32.420806
699	1	2.287849	11.375935	33.296219
700	1	2.281071	10.134610	34.216459
701	1	3.548840	10.088946	35.127723
702	1	3.550449	11.354805	32.395497
703	1	4.831345	11.360197	33.299608
704	1	4.841743	10.128821	34.219249
705	1	6.130359	10.115386	35.125549
706	1	6.102528	11.377341	32.432594
707	1	7.366225	13.874344	33.316176
708	1	7.389695	12.640555	34.198027
709	1	1.106588	12.643275	35.065351
710	1	1.073682	13.825180	32.432987
711	1	2.346750	13.857457	33.277200
712	1	2.345638	12.614273	34.184513
713	1	3.613865	12.564450	35.084462
714	1	3.573881	13.863112	32.388336
715	1	4.846891	13.864804	33.309616
716	1	4.878983	12.578321	34.205170
717	1	6.155726	12.626810	35.101259
718	1	6.108582	13.861190	32.405946
719	1	7.378396	1.264690	36.955447
720	1	7.354819	15.150996	37.837962
721	1	1.083992	0.027580	38.694923
722	1	1.057883	1.206061	36.079613
723	1	2.322899	1.313026	36.985344
724	1	2.334026	0.017315	37.811637
725	1	3.567024	0.007053	38.731343
726	1	3.603503	1.296224	36.087165
727	1	4.875128	1.291486	36.951560
728	1	4.817183	0.011442	37.815014
729	1	6.079781	15.140049	38.717687
730	1	6.113599	1.307959	36.036442
731	1	7.317212	3.763494	36.948833
732	1	7.357374	2.521792	37.833122
733	1	1.002772	2.557383	38.766662
734	1	0.985871	3.755501	36.050982
735	1	2.231609	3.830712	36.958617
736	1	2.232103	2.598569	37.893808
737	1	3.564506	2.580399	38.743167
738	1	3.514361	3.766191	36.061346
739	1	4.797572	3.775602	36.927001
740	1	4.861029	2.563634	37.839955
741	1	6.104651	2.522413	38.727750
742	1	6.076574	3.813397	36.050769
743	1	7.346480	6.328865	36.964776
744	1	7.334855	5.038200	37.845936
745	1	1.010685	5.059433	38.757347
746	1	0.990115	6.337534	36.113798
747	1	2.263505	6.367412	36.976783
748	1	2.258234	5.096999	37.869908
749	1	3.541822	5.086261	38.729953
750	1	3.531614	6.334113	36.102705
751	1	4.824863	6.361578	36.950729
752	1	4.807091	5.061446	37.819516
753	1	6.070568	5.058136	38.717519
754	1	6.109049	6.352776	36.067743
755	1	7.373842	8.862037	37.016498
756	1	7.353727	7.599785	37.875145
757	1	1.032898	7.605799	38.782091
758	1	1.033811	8.827860	36.103512
759	1	2.287265	8.869575	36.961203
760	1	2.286052	7.624261	37.860142
761	1	3.570766	7.605903	38.739637
762	1	3.523352	8.840308	36.048622
763	1	4.803539	8.901071	36.936934
764	1	4.815406	7.649844	37.835446
765	1	6.103016	7.584169	38.685548
766	1	6.120315	8.872137	36.055708
767	1	7.374772	11.368534	36.933888
768	1	7.394502	10.152264	37.891158
769	1	1.070247	10.152325	38.781120
770	1	1.054758	11.369243	36.028806
771	1	2.287849	11.375935	36.904219
772	1	2.281071	10.134610	37.824459
773	1	3.548840	10.088946	38.735723
774	1	3.550449	11.354805	36.003497
775	1	4.831345	11.360197	36.907608
776	1	4.841743	10.128821	37.827249
777	1	6.130359	10.115386	38.733549
778	1	6.102528	11.377341	36.040594
779	1	7.366225	13.874344	36.924176
780	1	7.389695	12.640555	37.806027
781	1	1.106588	12.643275	38.673351
782	1	1.073682	13.825180	36.040987
783	1	2.346750	13.857457	36.885200
784	1	2.345638	12.614273	37.792513
785	1	3.613865	12.564450	38.692462
786	1	3.573881	13.863112	35.996336
787	1	4.846891	13.864804	36.917616
788	1	4.878983	12.578321	37.813170
789	1	6.155726	12.626810	38.709259
790	1	6.108582	13.861190	36.013946
791	1	7.378396	1.264690	40.563447
792	1	7.354819	15.150996	41.445962
793	1	1.083992	0.027580	42.302923
794	1	1.057883	1.206061	39.687613
795	1	2.322899	1.313026	40.593344
796	1	2.334026	0.017315	41.419637
797	1	3.567024	0.007053	42.339343
798	1	3.603503	1.296224	39.695165
799	1	4.875128	1.291486	40.559560
800	1	4.817183	0.011442	41.423014
801	1	6.079781	15.140049	42.325687
802	1	6.113599	1.307959	39.644442
803	1	7.317212	3.763494	40.556833
804	1	7.357374	2.521792	41.441122
805	1	1.002772	2.557383	42.374662
806	1	0.985871	3.755501	39.658982
807	1	2.231609	3.830712	40.566617
808	1	2.232103	2.598569	41.501808
809	1	3.564506	2.580399	42.351167
810	1	3.514361	3.766191	39.669346
811	1	4.797572	3.775602	40.535001
812	1	4.861029	2.563634	41.447955
813	1	6.104651	2.522413	42.335750
814	1	6.076574	3.813397	39.658769
815	1	7.346480	6.328865	40.572776
816	1	7.334855	5.038200	41.453936
817	1	1.010685	5.059433	42.365347
818	1	0.990115	6.337534	39.721798
819	1	2.263505	6.367412	40.584783
820	1	2.258234	5.096999	41.477908
821	1	3.541822	5.086261	42.337953
822	1	3.531614	6.334113	39.710705
823	1	4.824863	6.361578	40.558729
824	1	4.807091	5.061446	41.427516
825	1	6.070568	5.058136	42.325519
826	1	6.109049	6.352776	39.675743
827	1	7.373842	8.862037	40.624498
828	1	7.353727	7.599785	41.483145
829	1	1.032898	7.605799	42.390091
830	1	1.033811	8.827860	39.711512
831	1	2.287265	8.869575	40.569203
832	1	2.286052	7.624261	41.468142
833	1	3.570766	7.605903	42.347637
834	1	3.523352	8.840308	39.656622
835	1	4.803539	8.901071	40.544934
836	1	4.815406	7.649844	41.443446
837	1	6.103016	7.584169	42.293548
838	1	6.120315	8.872137	39.663708
839	1	7.374772	11.368534	40.541888
840	1	7.394502	10.152264	41.499158
841	1	1.070247	10.152325	42.389120
842	1	1.054758	11.369243	39.636806
843	1	2.287849	11.375935	40.512219
844	1	2.281071	10.134610	41.432459
845	1	3.548840	10.088946	42.343723
846	1	3.550449	11.354805	39.611497
847	1	4.831345	11.360197	40.515608
848	1	4.841743	10.128821	41.435249
849	1	6.130359	10.115386	42.341549
850	1	6.102528	11.377341	39.648594
851	1	7.366225	13.874344	40.532176
852	1	7.389695	12.640555	41.414027
853	1	1.106588	12.643275	42.281351
854	1	1.073682	13.825180	39.648987
855	1	2.346750	13.857457	40.493200
856	1	2.345638	12.614273	41.400513
857	1	3.613865	12.564450	42.300462
858	1	3.573881	13.863112	39.604336
859	1	4.846891	13.864804	40.525616
860	1	4.878983	12.578321	41.421170
861	1	6.155726	12.626810	42.317259
862	1	6.108582	13.861190	39.621946
863	1	7.378396	1.264690	44.171447
864	1	7.354819	15.150996	45.053962
865	1	1.083992	0.027580	45.910923
866	1	1.057883	1.206061	43.295613
867	1	2.322899	1.313026	44.201344
868	1	2.334026	0.017315	45.027637
869	1	3.567024	0.007053	45.947343
870	1	3.603503	1.296224	43.303165
871	1	4.875128	1.291486	44.167560
872	1	4.817183	0.011442	45.031014
873	1	6.079781	15.140049	45.933687
874	1	6.113599	1.307959	43.252442
875	1	7.317212	3.763494	44.164833
876	1	7.357374	2.521792	45.049122