# LAMMPS data file written by OVITO Basic 3.7.12
2152 atoms
2 atom types
0.0 15.1619691849 xlo xhi
0.0 7.5809845924 ylo yhi
0.0 184.087200 zlo zhi 

Masses
 
1 12.0107  # C
2 91.224  # Zr

 
Atoms  # atomic

1	1	15.139178	1.163627	0.686993
2	1	15.158315	7.570965	1.679469
3	1	1.238223	7.543523	2.520978
4	1	2.497137	1.205886	0.657344
5	1	2.520391	7.569403	1.660296
6	1	3.795814	7.568914	2.505447
7	1	5.042972	1.158999	0.672458
8	1	5.058372	7.541547	1.678665
9	1	6.338919	0.001936	2.505596
10	1	7.584808	1.202660	0.676851
11	1	7.600659	7.580201	1.666188
12	1	8.834619	7.572908	2.485893
13	1	10.159976	1.194785	0.610811
14	1	10.135174	0.003735	1.587925
15	1	11.414735	7.563906	2.474574
16	1	12.650981	1.217159	0.650343
17	1	12.660764	0.011810	1.652129
18	1	13.947890	7.567230	2.522869
19	1	0.052234	3.786061	0.448464
20	1	0.018645	2.497114	1.482977
21	1	1.341825	2.501668	2.403166
22	1	2.533028	3.819574	0.558654
23	1	2.582700	2.508575	1.489502
24	1	3.849846	2.509187	2.364798
25	1	5.075907	3.813847	0.507479
26	1	5.060299	2.508023	1.442304
27	1	6.348720	2.558703	2.376199
28	1	7.554702	3.834360	0.489750
29	1	7.613748	2.520330	1.479853
30	1	8.890759	2.489178	2.398782
31	1	10.092658	3.803523	0.636827
32	1	10.123208	2.488815	1.526433
33	1	11.406326	2.520989	2.425748
34	1	12.611530	3.780344	0.551780
35	1	12.640885	2.521388	1.502130
36	1	13.914614	2.562056	2.439885
37	1	15.151018	6.373808	0.709375
38	1	0.025426	5.049911	1.481221
39	1	1.292412	5.050412	2.404997
40	1	2.554240	6.446918	0.700065
41	1	2.594027	5.124623	1.463973
42	1	3.848181	5.064499	2.372780
43	1	5.067799	6.408889	0.676017
44	1	5.099750	5.061138	1.458343
45	1	6.319455	5.059282	2.401617
46	1	7.604083	6.447200	0.656984
47	1	7.596859	5.100313	1.513645
48	1	8.914262	5.041925	2.423681
49	1	10.171518	6.412383	0.695986
50	1	10.142207	5.065886	1.508443
51	1	11.429346	5.077189	2.439613
52	1	12.668459	6.401578	0.691315
53	1	12.660762	5.080968	1.492918
54	1	13.947544	5.002125	2.429844
55	1	0.043943	1.244356	4.314351
56	1	0.062652	7.533765	5.223961
57	1	1.341702	7.517109	6.092449
58	1	1.281010	1.214185	3.405057
59	1	2.606345	1.226109	4.295111
60	1	2.607729	7.545389	5.209461
61	1	3.880542	7.515632	6.025877
62	1	3.838863	1.303256	3.399369
63	1	5.094531	1.224628	4.261861
64	1	5.099416	7.520653	5.146507
65	1	6.376992	7.519289	6.092717
66	1	6.361119	1.271393	3.369436
67	1	7.632875	1.212329	4.268531
68	1	7.620476	7.497856	5.229746
69	1	8.904443	7.488635	6.105352
70	1	8.884704	1.248991	3.372063
71	1	10.162332	1.206067	4.281218
72	1	10.162610	7.529843	5.174740
73	1	11.417751	7.521145	6.087122
74	1	11.385327	1.217177	3.394886
75	1	12.672220	1.187671	4.340826
76	1	12.720810	7.556247	5.221517
77	1	13.943140	7.549972	6.095720
78	1	13.959229	1.223675	3.441205
79	1	0.045015	3.711625	4.248685
80	1	0.049770	2.463448	5.177271
81	1	1.283253	2.445613	6.065009
82	1	1.358710	3.743906	3.359197
83	1	2.617741	3.743321	4.252902
84	1	2.595864	2.479009	5.178075
85	1	3.837473	2.455061	6.073809
86	1	3.886229	3.747767	3.320898
87	1	5.073088	3.739589	4.250659
88	1	5.086408	2.467749	5.155930
89	1	6.368556	2.451777	6.025411
90	1	6.331665	3.796865	3.354378
91	1	7.659124	3.751366	4.254880
92	1	7.647872	2.449659	5.124566
93	1	8.905362	2.396014	6.039909
94	1	8.939268	3.756133	3.351979
95	1	10.199851	3.728810	4.297199
96	1	10.189870	2.420477	5.151984
97	1	11.439068	2.451445	6.067319
98	1	11.428684	3.779155	3.341734
99	1	12.678649	3.752402	4.231000
100	1	12.708687	2.472614	5.163951
101	1	13.942740	2.468787	6.105539
102	1	13.908643	3.790633	3.369726
103	1	0.029625	6.268661	4.307396
104	1	0.064484	4.995317	5.201109
105	1	1.300646	4.976625	6.074519
106	1	1.266939	6.281243	3.417446
107	1	2.564630	6.262924	4.315476
108	1	2.589599	4.976905	5.162589
109	1	3.840245	4.979386	6.083791
110	1	3.788296	6.276683	3.424879
111	1	5.074921	6.279836	4.310113
112	1	5.098301	4.983006	5.181640
113	1	6.364366	4.980602	6.080834
114	1	6.326597	6.300090	3.402920
115	1	7.629511	6.252273	4.310641
116	1	7.658717	4.983603	5.210058
117	1	8.909547	4.953856	6.114997
118	1	8.895628	6.297441	3.423518
119	1	10.161179	6.253030	4.330953
120	1	10.185465	5.005587	5.245634
121	1	11.410043	5.008335	6.122801
122	1	11.427575	6.261798	3.428607
123	1	12.682608	6.279635	4.326975
124	1	12.669081	5.016514	5.216659
125	1	13.961735	4.954355	6.118710
126	1	13.920268	6.261779	3.439954
127	1	0.043943	1.244356	7.957451
128	1	0.062652	7.533765	8.867061
129	1	1.341702	7.517109	9.735549
130	1	1.281010	1.214185	7.048157
131	1	2.606345	1.226109	7.938211
132	1	2.607729	7.545389	8.852561
133	1	3.880542	7.515632	9.668977
134	1	3.838863	1.303256	7.042469
135	1	5.094531	1.224628	7.904961
136	1	5.099416	7.520653	8.789607
137	1	6.376992	7.519289	9.735817
138	1	6.361119	1.271393	7.012536
139	1	7.632875	1.212329	7.911631
140	1	7.620476	7.497856	8.872846
141	1	8.904443	7.488635	9.748452
142	1	8.884704	1.248991	7.015163
143	1	10.162332	1.206067	7.924318
144	1	10.162610	7.529843	8.817840
145	1	11.417751	7.521145	9.730222
146	1	11.385327	1.217177	7.037986
147	1	12.672220	1.187671	7.983926
148	1	12.720810	7.556247	8.864617
149	1	13.943140	7.549972	9.738820
150	1	13.959229	1.223675	7.084305
151	1	0.045015	3.711625	7.891785
152	1	0.049770	2.463448	8.820371
153	1	1.283253	2.445613	9.708109
154	1	1.358710	3.743906	7.002297
155	1	2.617741	3.743321	7.896002
156	1	2.595864	2.479009	8.821175
157	1	3.837473	2.455061	9.716909
158	1	3.886229	3.747767	6.963998
159	1	5.073088	3.739589	7.893759
160	1	5.086408	2.467749	8.799030
161	1	6.368556	2.451777	9.668511
162	1	6.331665	3.796865	6.997478
163	1	7.659124	3.751366	7.897980
164	1	7.647872	2.449659	8.767666
165	1	8.905362	2.396014	9.683009
166	1	8.939268	3.756133	6.995079
167	1	10.199851	3.728810	7.940299
168	1	10.189870	2.420477	8.795084
169	1	11.439068	2.451445	9.710419
170	1	11.428684	3.779155	6.984834
171	1	12.678649	3.752402	7.874100
172	1	12.708687	2.472614	8.807051
173	1	13.942740	2.468787	9.748639
174	1	13.908643	3.790633	7.012826
175	1	0.029625	6.268661	7.950496
176	1	0.064484	4.995317	8.844209
177	1	1.300646	4.976625	9.717619
178	1	1.266939	6.281243	7.060546
179	1	2.564630	6.262924	7.958576
180	1	2.589599	4.976905	8.805689
181	1	3.840245	4.979386	9.726891
182	1	3.788296	6.276683	7.067979
183	1	5.074921	6.279836	7.953213
184	1	5.098301	4.983006	8.824740
185	1	6.364366	4.980602	9.723934
186	1	6.326597	6.300090	7.046020
187	1	7.629511	6.252273	7.953741
188	1	7.658717	4.983603	8.853158
189	1	8.909547	4.953856	9.758097
190	1	8.895628	6.297441	7.066618
191	1	10.161179	6.253030	7.974053
192	1	10.185465	5.005587	8.888734
193	1	11.410043	5.008335	9.765901
194	1	11.427575	6.261798	7.071707
195	1	12.682608	6.279635	7.970075
196	1	12.669081	5.016514	8.859759
197	1	13.961735	4.954355	9.761810
198	1	13.920268	6.261779	7.083054
199	1	0.043943	1.244356	11.600551
200	1	0.062652	7.533765	12.510161
201	1	1.341702	7.517109	13.378649
202	1	1.281010	1.214185	10.691257
203	1	2.606345	1.226109	11.581311
204	1	2.607729	7.545389	12.495661
205	1	3.880542	7.515632	13.312077
206	1	3.838863	1.303256	10.685569
207	1	5.094531	1.224628	11.548061
208	1	5.099416	7.520653	12.432707
209	1	6.376992	7.519289	13.378917
210	1	6.361119	1.271393	10.655636
211	1	7.632875	1.212329	11.554731
212	1	7.620476	7.497856	12.515946
213	1	8.904443	7.488635	13.391552
214	1	8.884704	1.248991	10.658263
215	1	10.162332	1.206067	11.567418
216	1	10.162610	7.529843	12.460940
217	1	11.417751	7.521145	13.373322
218	1	11.385327	1.217177	10.681086
219	1	12.672220	1.187671	11.627026
220	1	12.720810	7.556247	12.507717
221	1	13.943140	7.549972	13.381920
222	1	13.959229	1.223675	10.727405
223	1	0.045015	3.711625	11.534885
224	1	0.049770	2.463448	12.463471
225	1	1.283253	2.445613	13.351209
226	1	1.358710	3.743906	10.645397
227	1	2.617741	3.743321	11.539102
228	1	2.595864	2.479009	12.464275
229	1	3.837473	2.455061	13.360009
230	1	3.886229	3.747767	10.607098
231	1	5.073088	3.739589	11.536859
232	1	5.086408	2.467749	12.442130
233	1	6.368556	2.451777	13.311611
234	1	6.331665	3.796865	10.640578
235	1	7.659124	3.751366	11.541080
236	1	7.647872	2.449659	12.410766
237	1	8.905362	2.396014	13.326109
238	1	8.939268	3.756133	10.638179
239	1	10.199851	3.728810	11.583399
240	1	10.189870	2.420477	12.438184
241	1	11.439068	2.451445	13.353519
242	1	11.428684	3.779155	10.627934
243	1	12.678649	3.752402	11.517200
244	1	12.708687	2.472614	12.450151
245	1	13.942740	2.468787	13.391739
246	1	13.908643	3.790633	10.655926
247	1	0.029625	6.268661	11.593596
248	1	0.064484	4.995317	12.487309
249	1	1.300646	4.976625	13.360719
250	1	1.266939	6.281243	10.703646
251	1	2.564630	6.262924	11.601676
252	1	2.589599	4.976905	12.448789
253	1	3.840245	4.979386	13.369991
254	1	3.788296	6.276683	10.711079
255	1	5.074921	6.279836	11.596313
256	1	5.098301	4.983006	12.467840
257	1	6.364366	4.980602	13.367034
258	1	6.326597	6.300090	10.689120
259	1	7.629511	6.252273	11.596841
260	1	7.658717	4.983603	12.496258
261	1	8.909547	4.953856	13.401197
262	1	8.895628	6.297441	10.709718
263	1	10.161179	6.253030	11.617153
264	1	10.185465	5.005587	12.531834
265	1	11.410043	5.008335	13.409001
266	1	11.427575	6.261798	10.714807
267	1	12.682608	6.279635	11.613175
268	1	12.669081	5.016514	12.502859
269	1	13.961735	4.954355	13.404910
270	1	13.920268	6.261779	10.726154
271	1	0.043943	1.244356	15.243651
272	1	0.062652	7.533765	16.153261
273	1	1.341702	7.517109	17.021749
274	1	1.281010	1.214185	14.334357
275	1	2.606345	1.226109	15.224411
276	1	2.607729	7.545389	16.138761
277	1	3.880542	7.515632	16.955177
278	1	3.838863	1.303256	14.328669
279	1	5.094531	1.224628	15.191161
280	1	5.099416	7.520653	16.075807
281	1	6.376992	7.519289	17.022017
282	1	6.361119	1.271393	14.298736
283	1	7.632875	1.212329	15.197831
284	1	7.620476	7.497856	16.159046
285	1	8.904443	7.488635	17.034652
286	1	8.884704	1.248991	14.301363
287	1	10.162332	1.206067	15.210518
288	1	10.162610	7.529843	16.104040
289	1	11.417751	7.521145	17.016422
290	1	11.385327	1.217177	14.324186
291	1	12.672220	1.187671	15.270126
292	1	12.720810	7.556247	16.150817
293	1	13.943140	7.549972	17.025020
294	1	13.959229	1.223675	14.370505
295	1	0.045015	3.711625	15.177985
296	1	0.049770	2.463448	16.106571
297	1	1.283253	2.445613	16.994309
298	1	1.358710	3.743906	14.288497
299	1	2.617741	3.743321	15.182202
300	1	2.595864	2.479009	16.107375
301	1	3.837473	2.455061	17.003109
302	1	3.886229	3.747767	14.250198
303	1	5.073088	3.739589	15.179959
304	1	5.086408	2.467749	16.085230
305	1	6.368556	2.451777	16.954711
306	1	6.331665	3.796865	14.283678
307	1	7.659124	3.751366	15.184180
308	1	7.647872	2.449659	16.053866
309	1	8.905362	2.396014	16.969209
310	1	8.939268	3.756133	14.281279
311	1	10.199851	3.728810	15.226499
312	1	10.189870	2.420477	16.081284
313	1	11.439068	2.451445	16.996619
314	1	11.428684	3.779155	14.271034
315	1	12.678649	3.752402	15.160300
316	1	12.708687	2.472614	16.093251
317	1	13.942740	2.468787	17.034839
318	1	13.908643	3.790633	14.299026
319	1	0.029625	6.268661	15.236696
320	1	0.064484	4.995317	16.130409
321	1	1.300646	4.976625	17.003819
322	1	1.266939	6.281243	14.346746
323	1	2.564630	6.262924	15.244776
324	1	2.589599	4.976905	16.091889
325	1	3.840245	4.979386	17.013091
326	1	3.788296	6.276683	14.354179
327	1	5.074921	6.279836	15.239413
328	1	5.098301	4.983006	16.110940
329	1	6.364366	4.980602	17.010134
330	1	6.326597	6.300090	14.332220
331	1	7.629511	6.252273	15.239941
332	1	7.658717	4.983603	16.139358
333	1	8.909547	4.953856	17.044297
334	1	8.895628	6.297441	14.352818
335	1	10.161179	6.253030	15.260253
336	1	10.185465	5.005587	16.174934
337	1	11.410043	5.008335	17.052101
338	1	11.427575	6.261798	14.357907
339	1	12.682608	6.279635	15.256275
340	1	12.669081	5.016514	16.145959
341	1	13.961735	4.954355	17.048010
342	1	13.920268	6.261779	14.369254
343	1	0.043943	1.244356	18.886751
344	1	0.062652	7.533765	19.796361
345	1	1.341702	7.517109	20.664849
346	1	1.281010	1.214185	17.977457
347	1	2.606345	1.226109	18.867511
348	1	2.607729	7.545389	19.781861
349	1	3.880542	7.515632	20.598277
350	1	3.838863	1.303256	17.971769
351	1	5.094531	1.224628	18.834261
352	1	5.099416	7.520653	19.718907
353	1	6.376992	7.519289	20.665117
354	1	6.361119	1.271393	17.941836
355	1	7.632875	1.212329	18.840931
356	1	7.620476	7.497856	19.802146
357	1	8.904443	7.488635	20.677752
358	1	8.884704	1.248991	17.944463
359	1	10.162332	1.206067	18.853618
360	1	10.162610	7.529843	19.747140
361	1	11.417751	7.521145	20.659522
362	1	11.385327	1.217177	17.967286
363	1	12.672220	1.187671	18.913226
364	1	12.720810	7.556247	19.793917
365	1	13.943140	7.549972	20.668120
366	1	13.959229	1.223675	18.013605
367	1	0.045015	3.711625	18.821085
368	1	0.049770	2.463448	19.749671
369	1	1.283253	2.445613	20.637409
370	1	1.358710	3.743906	17.931597
371	1	2.617741	3.743321	18.825302
372	1	2.595864	2.479009	19.750475
373	1	3.837473	2.455061	20.646209
374	1	3.886229	3.747767	17.893298
375	1	5.073088	3.739589	18.823059
376	1	5.086408	2.467749	19.728330
377	1	6.368556	2.451777	20.597811
378	1	6.331665	3.796865	17.926778
379	1	7.659124	3.751366	18.827280
380	1	7.647872	2.449659	19.696966
381	1	8.905362	2.396014	20.612309
382	1	8.939268	3.756133	17.924379
383	1	10.199851	3.728810	18.869599
384	1	10.189870	2.420477	19.724384
385	1	11.439068	2.451445	20.639719
386	1	11.428684	3.779155	17.914134
387	1	12.678649	3.752402	18.803400
388	1	12.708687	2.472614	19.736351
389	1	13.942740	2.468787	20.677939
390	1	13.908643	3.790633	17.942126
391	1	0.029625	6.268661	18.879796
392	1	0.064484	4.995317	19.773509
393	1	1.300646	4.976625	20.646919
394	1	1.266939	6.281243	17.989846
395	1	2.564630	6.262924	18.887876
396	1	2.589599	4.976905	19.734989
397	1	3.840245	4.979386	20.656191
398	1	3.788296	6.276683	17.997279
399	1	5.074921	6.279836	18.882513
400	1	5.098301	4.983006	19.754040
401	1	6.364366	4.980602	20.653234
402	1	6.326597	6.300090	17.975320
403	1	7.629511	6.252273	18.883041
404	1	7.658717	4.983603	19.782458
405	1	8.909547	4.953856	20.687397
406	1	8.895628	6.297441	17.995918
407	1	10.161179	6.253030	18.903353
408	1	10.185465	5.005587	19.818034
409	1	11.410043	5.008335	20.695201
410	1	11.427575	6.261798	18.001007
411	1	12.682608	6.279635	18.899375
412	1	12.669081	5.016514	19.789059
413	1	13.961735	4.954355	20.691110
414	1	13.920268	6.261779	18.012354
415	1	0.043943	1.244356	22.529851
416	1	0.062652	7.533765	23.439461
417	1	1.341702	7.517109	24.307949
418	1	1.281010	1.214185	21.620557
419	1	2.606345	1.226109	22.510611
420	1	2.607729	7.545389	23.424961
421	1	3.880542	7.515632	24.241377
422	1	3.838863	1.303256	21.614869
423	1	5.094531	1.224628	22.477361
424	1	5.099416	7.520653	23.362007
425	1	6.376992	7.519289	24.308217
426	1	6.361119	1.271393	21.584936
427	1	7.632875	1.212329	22.484031
428	1	7.620476	7.497856	23.445246
429	1	8.904443	7.488635	24.320852
430	1	8.884704	1.248991	21.587563
431	1	10.162332	1.206067	22.496718
432	1	10.162610	7.529843	23.390240
433	1	11.417751	7.521145	24.302622
434	1	11.385327	1.217177	21.610386
435	1	12.672220	1.187671	22.556326
436	1	12.720810	7.556247	23.437017
437	1	13.943140	7.549972	24.311220
438	1	13.959229	1.223675	21.656705
439	1	0.045015	3.711625	22.464185
440	1	0.049770	2.463448	23.392771
441	1	1.283253	2.445613	24.280509
442	1	1.358710	3.743906	21.574697
443	1	2.617741	3.743321	22.468402
444	1	2.595864	2.479009	23.393575
445	1	3.837473	2.455061	24.289309
446	1	3.886229	3.747767	21.536398
447	1	5.073088	3.739589	22.466159
448	1	5.086408	2.467749	23.371430
449	1	6.368556	2.451777	24.240911
450	1	6.331665	3.796865	21.569878
451	1	7.659124	3.751366	22.470380
452	1	7.647872	2.449659	23.340066
453	1	8.905362	2.396014	24.255409
454	1	8.939268	3.756133	21.567479
455	1	10.199851	3.728810	22.512699
456	1	10.189870	2.420477	23.367484
457	1	11.439068	2.451445	24.282819
458	1	11.428684	3.779155	21.557234
459	1	12.678649	3.752402	22.446500
460	1	12.708687	2.472614	23.379451
461	1	13.942740	2.468787	24.321039
462	1	13.908643	3.790633	21.585226
463	1	0.029625	6.268661	22.522896
464	1	0.064484	4.995317	23.416609
465	1	1.300646	4.976625	24.290019
466	1	1.266939	6.281243	21.632946
467	1	2.564630	6.262924	22.530976
468	1	2.589599	4.976905	23.378089
469	1	3.840245	4.979386	24.299291
470	1	3.788296	6.276683	21.640379
471	1	5.074921	6.279836	22.525613
472	1	5.098301	4.983006	23.397140
473	1	6.364366	4.980602	24.296334
474	1	6.326597	6.300090	21.618420
475	1	7.629511	6.252273	22.526141
476	1	7.658717	4.983603	23.425558
477	1	8.909547	4.953856	24.330497
478	1	8.895628	6.297441	21.639018
479	1	10.161179	6.253030	22.546453
480	1	10.185465	5.005587	23.461134
481	1	11.410043	5.008335	24.338301
482	1	11.427575	6.261798	21.644107
483	1	12.682608	6.279635	22.542475
484	1	12.669081	5.016514	23.432159
485	1	13.961735	4.954355	24.334210
486	1	13.920268	6.261779	21.655454
487	1	0.043943	1.244356	26.172951
488	1	0.062652	7.533765	27.082561
489	1	1.341702	7.517109	27.951049
490	1	1.281010	1.214185	25.263657
491	1	2.606345	1.226109	26.153711
492	1	2.607729	7.545389	27.068061
493	1	3.880542	7.515632	27.884477
494	1	3.838863	1.303256	25.257969
495	1	5.094531	1.224628	26.120461
496	1	5.099416	7.520653	27.005107
497	1	6.376992	7.519289	27.951317
498	1	6.361119	1.271393	25.228036
499	1	7.632875	1.212329	26.127131
500	1	7.620476	7.497856	27.088346
501	1	8.904443	7.488635	27.963952
502	1	8.884704	1.248991	25.230663
503	1	10.162332	1.206067	26.139818
504	1	10.162610	7.529843	27.033340
505	1	11.417751	7.521145	27.945722
506	1	11.385327	1.217177	25.253486
507	1	12.672220	1.187671	26.199426
508	1	12.720810	7.556247	27.080117
509	1	13.943140	7.549972	27.954320
510	1	13.959229	1.223675	25.299805
511	1	0.045015	3.711625	26.107285
512	1	0.049770	2.463448	27.035871
513	1	1.283253	2.445613	27.923609
514	1	1.358710	3.743906	25.217797
515	1	2.617741	3.743321	26.111502
516	1	2.595864	2.479009	27.036675
517	1	3.837473	2.455061	27.932409
518	1	3.886229	3.747767	25.179498
519	1	5.073088	3.739589	26.109259
520	1	5.086408	2.467749	27.014530
521	1	6.368556	2.451777	27.884011
522	1	6.331665	3.796865	25.212978
523	1	7.659124	3.751366	26.113480
524	1	7.647872	2.449659	26.983166
525	1	8.905362	2.396014	27.898509
526	1	8.939268	3.756133	25.210579
527	1	10.199851	3.728810	26.155799
528	1	10.189870	2.420477	27.010584
529	1	11.439068	2.451445	27.925919
530	1	11.428684	3.779155	25.200334
531	1	12.678649	3.752402	26.089600
532	1	12.708687	2.472614	27.022551
533	1	13.942740	2.468787	27.964139
534	1	13.908643	3.790633	25.228326
535	1	0.029625	6.268661	26.165996
536	1	0.064484	4.995317	27.059709
537	1	1.300646	4.976625	27.933119
538	1	1.266939	6.281243	25.276046
539	1	2.564630	6.262924	26.174076
540	1	2.589599	4.976905	27.021189
541	1	3.840245	4.979386	27.942391
542	1	3.788296	6.276683	25.283479
543	1	5.074921	6.279836	26.168713
544	1	5.098301	4.983006	27.040240
545	1	6.364366	4.980602	27.939434
546	1	6.326597	6.300090	25.261520
547	1	7.629511	6.252273	26.169241
548	1	7.658717	4.983603	27.068658
549	1	8.909547	4.953856	27.973597
550	1	8.895628	6.297441	25.282118
551	1	10.161179	6.253030	26.189553
552	1	10.185465	5.005587	27.104234
553	1	11.410043	5.008335	27.981401
554	1	11.427575	6.261798	25.287207
555	1	12.682608	6.279635	26.185575
556	1	12.669081	5.016514	27.075259
557	1	13.961735	4.954355	27.977310
558	1	13.920268	6.261779	25.298554
559	1	0.043943	1.244356	29.816051
560	1	0.062652	7.533765	30.725661
561	1	1.341702	7.517109	31.594149
562	1	1.281010	1.214185	28.906757
563	1	2.606345	1.226109	29.796811
564	1	2.607729	7.545389	30.711161
565	1	3.880542	7.515632	31.527577
566	1	3.838863	1.303256	28.901069
567	1	5.094531	1.224628	29.763561
568	1	5.099416	7.520653	30.648207
569	1	6.376992	7.519289	31.594417
570	1	6.361119	1.271393	28.871136
571	1	7.632875	1.212329	29.770231
572	1	7.620476	7.497856	30.731446
573	1	8.904443	7.488635	31.607052
574	1	8.884704	1.248991	28.873763
575	1	10.162332	1.206067	29.782918
576	1	10.162610	7.529843	30.676440
577	1	11.417751	7.521145	31.588822
578	1	11.385327	1.217177	28.896586
579	1	12.672220	1.187671	29.842526
580	1	12.720810	7.556247	30.723217
581	1	13.943140	7.549972	31.597420
582	1	13.959229	1.223675	28.942905
583	1	0.045015	3.711625	29.750385
584	1	0.049770	2.463448	30.678971
585	1	1.283253	2.445613	31.566709
586	1	1.358710	3.743906	28.860897
587	1	2.617741	3.743321	29.754602
588	1	2.595864	2.479009	30.679775
589	1	3.837473	2.455061	31.575509
590	1	3.886229	3.747767	28.822598
591	1	5.073088	3.739589	29.752359
592	1	5.086408	2.467749	30.657630
593	1	6.368556	2.451777	31.527111
594	1	6.331665	3.796865	28.856078
595	1	7.659124	3.751366	29.756580
596	1	7.647872	2.449659	30.626266
597	1	8.905362	2.396014	31.541609
598	1	8.939268	3.756133	28.853679
599	1	10.199851	3.728810	29.798899
600	1	10.189870	2.420477	30.653684
601	1	11.439068	2.451445	31.569019
602	1	11.428684	3.779155	28.843434
603	1	12.678649	3.752402	29.732700
604	1	12.708687	2.472614	30.665651
605	1	13.942740	2.468787	31.607239
606	1	13.908643	3.790633	28.871426
607	1	0.029625	6.268661	29.809096
608	1	0.064484	4.995317	30.702809
609	1	1.300646	4.976625	31.576219
610	1	1.266939	6.281243	28.919146
611	1	2.564630	6.262924	29.817176
612	1	2.589599	4.976905	30.664289
613	1	3.840245	4.979386	31.585491
614	1	3.788296	6.276683	28.926579
615	1	5.074921	6.279836	29.811813
616	1	5.098301	4.983006	30.683340
617	1	6.364366	4.980602	31.582534
618	1	6.326597	6.300090	28.904620
619	1	7.629511	6.252273	29.812341
620	1	7.658717	4.983603	30.711758
621	1	8.909547	4.953856	31.616697
622	1	8.895628	6.297441	28.925218
623	1	10.161179	6.253030	29.832653
624	1	10.185465	5.005587	30.747334
625	1	11.410043	5.008335	31.624501
626	1	11.427575	6.261798	28.930307
627	1	12.682608	6.279635	29.828675
628	1	12.669081	5.016514	30.718359
629	1	13.961735	4.954355	31.620410
630	1	13.920268	6.261779	28.941654
631	1	0.043943	1.244356	33.459151
632	1	0.062652	7.533765	34.368761
633	1	1.341702	7.517109	35.237249
634	1	1.281010	1.214185	32.549857
635	1	2.606345	1.226109	33.439911
636	1	2.607729	7.545389	34.354261
637	1	3.880542	7.515632	35.170677
638	1	3.838863	1.303256	32.544169
639	1	5.094531	1.224628	33.406661
640	1	5.099416	7.520653	34.291307
641	1	6.376992	7.519289	35.237517
642	1	6.361119	1.271393	32.514236
643	1	7.632875	1.212329	33.413331
644	1	7.620476	7.497856	34.374546
645	1	8.904443	7.488635	35.250152
646	1	8.884704	1.248991	32.516863
647	1	10.162332	1.206067	33.426018
648	1	10.162610	7.529843	34.319540
649	1	11.417751	7.521145	35.231922
650	1	11.385327	1.217177	32.539686
651	1	12.672220	1.187671	33.485626
652	1	12.720810	7.556247	34.366317
653	1	13.943140	7.549972	35.240520
654	1	13.959229	1.223675	32.586005
655	1	0.045015	3.711625	33.393485
656	1	0.049770	2.463448	34.322071
657	1	1.283253	2.445613	35.209809
658	1	1.358710	3.743906	32.503997
659	1	2.617741	3.743321	33.397702
660	1	2.595864	2.479009	34.322875
661	1	3.837473	2.455061	35.218609
662	1	3.886229	3.747767	32.465698
663	1	5.073088	3.739589	33.395459
664	1	5.086408	2.467749	34.300730
665	1	6.368556	2.451777	35.170211
666	1	6.331665	3.796865	32.499178
667	1	7.659124	3.751366	33.399680
668	1	7.647872	2.449659	34.269366
669	1	8.905362	2.396014	35.184709
670	1	8.939268	3.756133	32.496779
671	1	10.199851	3.728810	33.441999
672	1	10.189870	2.420477	34.296784
673	1	11.439068	2.451445	35.212119
674	1	11.428684	3.779155	32.486534
675	1	12.678649	3.752402	33.375800
676	1	12.708687	2.472614	34.308751
677	1	13.942740	2.468787	35.250339
678	1	13.908643	3.790633	32.514526
679	1	0.029625	6.268661	33.452196
680	1	0.064484	4.995317	34.345909
681	1	1.300646	4.976625	35.219319
682	1	1.266939	6.281243	32.562246
683	1	2.564630	6.262924	33.460276
684	1	2.589599	4.976905	34.307389
685	1	3.840245	4.979386	35.228591
686	1	3.788296	6.276683	32.569679
687	1	5.074921	6.279836	33.454913
688	1	5.098301	4.983006	34.326440
689	1	6.364366	4.980602	35.225634
690	1	6.326597	6.300090	32.547720
691	1	7.629511	6.252273	33.455441
692	1	7.658717	4.983603	34.354858
693	1	8.909547	4.953856	35.259797
694	1	8.895628	6.297441	32.568318
695	1	10.161179	6.253030	33.475753
696	1	10.185465	5.005587	34.390434
697	1	11.410043	5.008335	35.267601
698	1	11.427575	6.261798	32.573407
699	1	12.682608	6.279635	33.471775
700	1	12.669081	5.016514	34.361459
701	1	13.961735	4.954355	35.263510
702	1	13.920268	6.261779	32.584754
703	1	0.043943	1.244356	37.102251
704	1	0.062652	7.533765	38.011861
705	1	1.341702	7.517109	38.880349
706	1	1.281010	1.214185	36.192957
707	1	2.606345	1.226109	37.083011
708	1	2.607729	7.545389	37.997361
709	1	3.880542	7.515632	38.813777
710	1	3.838863	1.303256	36.187269
711	1	5.094531	1.224628	37.049761
712	1	5.099416	7.520653	37.934407
713	1	6.376992	7.519289	38.880617
714	1	6.361119	1.271393	36.157336
715	1	7.632875	1.212329	37.056431
716	1	7.620476	7.497856	38.017646
717	1	8.904443	7.488635	38.893252
718	1	8.884704	1.248991	36.159963
719	1	10.162332	1.206067	37.069118
720	1	10.162610	7.529843	37.962640
721	1	11.417751	7.521145	38.875022
722	1	11.385327	1.217177	36.182786
723	1	12.672220	1.187671	37.128726
724	1	12.720810	7.556247	38.009417
725	1	13.943140	7.549972	38.883620
726	1	13.959229	1.223675	36.229105
727	1	0.045015	3.711625	37.036585
728	1	0.049770	2.463448	37.965171
729	1	1.283253	2.445613	38.852909
730	1	1.358710	3.743906	36.147097
731	1	2.617741	3.743321	37.040802
732	1	2.595864	2.479009	37.965975
733	1	3.837473	2.455061	38.861709
734	1	3.886229	3.747767	36.108798
735	1	5.073088	3.739589	37.038559
736	1	5.086408	2.467749	37.943830
737	1	6.368556	2.451777	38.813311
738	1	6.331665	3.796865	36.142278
739	1	7.659124	3.751366	37.042780
740	1	7.647872	2.449659	37.912466
741	1	8.905362	2.396014	38.827809
742	1	8.939268	3.756133	36.139879
743	1	10.199851	3.728810	37.085099
744	1	10.189870	2.420477	37.939884
745	1	11.439068	2.451445	38.855219
746	1	11.428684	3.779155	36.129634
747	1	12.678649	3.752402	37.018900
748	1	12.708687	2.472614	37.951851
749	1	13.942740	2.468787	38.893439
750	1	13.908643	3.790633	36.157626
751	1	0.029625	6.268661	37.095296
752	1	0.064484	4.995317	37.989009
753	1	1.300646	4.976625	38.862419
754	1	1.266939	6.281243	36.205346
755	1	2.564630	6.262924	37.103376
756	1	2.589599	4.976905	37.950489
757	1	3.840245	4.979386	38.871691
758	1	3.788296	6.276683	36.212779
759	1	5.074921	6.279836	37.098013
760	1	5.098301	4.983006	37.969540
761	1	6.364366	4.980602	38.868734
762	1	6.326597	6.300090	36.190820
763	1	7.629511	6.252273	37.098541
764	1	7.658717	4.983603	37.997958
765	1	8.909547	4.953856	38.902897
766	1	8.895628	6.297441	36.211418
767	1	10.161179	6.253030	37.118853
768	1	10.185465	5.005587	38.033534
769	1	11.410043	5.008335	38.910701
770	1	11.427575	6.261798	36.216507
771	1	12.682608	6.279635	37.114875
772	1	12.669081	5.016514	38.004559
773	1	13.961735	4.954355	38.906610
774	1	13.920268	6.261779	36.227854
775	1	0.043943	1.244356	40.745351
776	1	0.062652	7.533765	41.654961
777	1	1.341702	7.517109	42.523449
778	1	1.281010	1.214185	39.836057
779	1	2.606345	1.226109	40.726111
780	1	2.607729	7.545389	41.640461
781	1	3.880542	7.515632	42.456877
782	1	3.838863	1.303256	39.830369
783	1	5.094531	1.224628	40.692861
784	1	5.099416	7.520653	41.577507
785	1	6.376992	7.519289	42.523717
786	1	6.361119	1.271393	39.800436
787	1	7.632875	1.212329	40.699531
788	1	7.620476	7.497856	41.660746
789	1	8.904443	7.488635	42.536352
790	1	8.884704	1.248991	39.803063
791	1	10.162332	1.206067	40.712218
792	1	10.162610	7.529843	41.605740
793	1	11.417751	7.521145	42.518122
794	1	11.385327	1.217177	39.825886
795	1	12.672220	1.187671	40.771826
796	1	12.720810	7.556247	41.652517
797	1	13.943140	7.549972	42.526720
798	1	13.959229	1.223675	39.872205
799	1	0.045015	3.711625	40.679685
800	1	0.049770	2.463448	41.608271
801	1	1.283253	2.445613	42.496009
802	1	1.358710	3.743906	39.790197
803	1	2.617741	3.743321	40.683902
804	1	2.595864	2.479009	41.609075
805	1	3.837473	2.455061	42.504809
806	1	3.886229	3.747767	39.751898
807	1	5.073088	3.739589	40.681659
808	1	5.086408	2.467749	41.586930
809	1	6.368556	2.451777	42.456411
810	1	6.331665	3.796865	39.785378
811	1	7.659124	3.751366	40.685880
812	1	7.647872	2.449659	41.555566
813	1	8.905362	2.396014	42.470909
814	1	8.939268	3.756133	39.782979
815	1	10.199851	3.728810	40.728199
816	1	10.189870	2.420477	41.582984
817	1	11.439068	2.451445	42.498319
818	1	11.428684	3.779155	39.772734
819	1	12.678649	3.752402	40.662000
820	1	12.708687	2.472614	41.594951
821	1	13.942740	2.468787	42.536539
822	1	13.908643	3.790633	39.800726
823	1	0.029625	6.268661	40.738396
824	1	0.064484	4.995317	41.632109
825	1	1.300646	4.976625	42.505519
826	1	1.266939	6.281243	39.848446
827	1	2.564630	6.262924	40.746476
828	1	2.589599	4.976905	41.593589
829	1	3.840245	4.979386	42.514791
830	1	3.788296	6.276683	39.855879
831	1	5.074921	6.279836	40.741113
832	1	5.098301	4.983006	41.612640
833	1	6.364366	4.980602	42.511834
834	1	6.326597	6.300090	39.833920
835	1	7.629511	6.252273	40.741641
836	1	7.658717	4.983603	41.641058
837	1	8.909547	4.953856	42.545997
838	1	8.895628	6.297441	39.854518
839	1	10.161179	6.253030	40.761953
840	1	10.185465	5.005587	41.676634
841	1	11.410043	5.008335	42.553801
842	1	11.427575	6.261798	39.859607
843	1	12.682608	6.279635	40.757975
844	1	12.669081	5.016514	41.647659
845	1	13.961735	4.954355	42.549710
846	1	13.920268	6.261779	39.870954
847	1	0.043943	1.244356	44.388451
848	1	0.062652	7.533765	45.298061
849	1	1.341702	7.517109	46.166549
850	1	1.281010	1.214185	43.479157
851	1	2.606345	1.226109	44.369211
852	1	2.607729	7.545389	45.283561
853	1	3.880542	7.515632	46.099977
854	1	3.838863	1.303256	43.473469
855	1	5.094531	1.224628	44.335961
856	1	5.099416	7.520653	45.220607
857	1	6.376992	7.519289	46.166817
858	1	6.361119	1.271393	43.443536
859	1	7.632875	1.212329	44.342631
860	1	7.620476	7.497856	45.303846
861	1	8.904443	7.488635	46.179452
862	1	8.884704	1.248991	43.446163
863	1	10.162332	1.206067	44.355318
864	1	10.162610	7.529843	45.248840
865	1	11.417751	7.521145	46.161222
866	1	11.385327	1.217177	43.468986
867	1	12.672220	1.187671	44.414926
868	1	12.720810	7.556247	45.295617
869	1	13.943140	7.549972	46.169820
870	1	13.959229	1.223675	43.515305
871	1	0.045015	3.711625	44.322785
872	1	0.049770	2.463448	45.251371
873	1	1.283253	2.445613	46.139109
874	1	1.358710	3.743906	43.433297
875	1	2.617741	3.743321	44.327002
876	1	2.595864	2.479009	45.252175