# LAMMPS data file written by OVITO Basic 3.7.12
3288 atoms
2 atom types
0.0 12.6349744797 xlo xhi
0.0 12.6349744797 ylo yhi
0.0 190.3653 zlo zhi

Masses

1 12.0107  # C
2 95.94  # Mo

Atoms  # atomic

1	1	0.112830122200000	1.41042306820000	0.891931698400000
2	1	0.139181778600000	3.74958791860000	0.896286319200000
3	1	0.179077613000000	6.40890613670000	0.793142362700000
4	1	0.162735467600000	9.01919589480000	0.982835643700000
5	1	0.109040875200000	11.3482872146000	0.917123126100000
6	1	2.61163438640000	1.36600236510000	0.945442638500000
7	1	2.61077806340000	3.66393853970000	1.06883537660000
8	1	2.63714124800000	6.39344216350000	0.965835779100000
9	1	2.66393984270000	8.97034506160000	1.03403781400000
10	1	2.61265196530000	11.2975360878000	0.879393096000000
11	1	5.15305867760000	1.35125217640000	0.953133873700000
12	1	5.08187564060000	3.75439595570000	0.958318299100000
13	1	5.11383108240000	6.35714814430000	0.810559211700000
14	1	5.12047753170000	9.00552255680000	0.972275435800000
15	1	5.10779579990000	11.3318745463000	0.990998724600000
16	1	7.75145212740000	1.32946838040000	0.992075492600000
17	1	7.65920251810000	3.71390845890000	0.806235375800000
18	1	7.66391377970000	6.37041949560000	0.758450755800000
19	1	7.69549670350000	9.03976790000000	0.875912680500000
20	1	7.68464316550000	11.3628947573000	0.918712049700000
21	1	10.2598627455000	1.31093943460000	0.887933198600000
22	1	10.2554864272000	3.69897569870000	0.802250444300000
23	1	10.2563956253000	6.38999748270000	0.727762926300000
24	1	10.2365991419000	9.06133899700000	0.870387697800000
25	1	10.2004369024000	11.4145465742000	0.941456065900000
26	1	1.38374756860000	1.79493090480000	0.0972874013000000
27	1	1.44019186980000	3.39914412470000	0.156122667100000
28	1	1.43840406460000	9.27411843840000	0.212960921400000
29	1	1.34798832860000	10.9649214367000	0.0894932105000000
30	1	3.93436837930000	1.80474233040000	0.111696308600000
31	1	3.82359034490000	3.33188451960000	0.192469828600000
32	1	3.92061735550000	9.23766258740000	0.162456700700000
33	1	3.91786087310000	10.8559862818000	0.113418693400000
34	1	6.43507814440000	1.62819340750000	0.178984555200000
35	1	6.33174385360000	3.37140861420000	0.121915396100000
36	1	6.37521634820000	9.35347033360000	0.103804343600000
37	1	6.39235606730000	10.9891690436000	0.161600638000000
38	1	9.01333558110000	1.67399535770000	0.207965292500000
39	1	8.88846859630000	9.35871543030000	0.0696313307000000
40	1	8.94922340410000	11.0230840934000	0.192716381300000
41	1	11.5000692328000	1.64852003010000	0.0831639024000000
42	1	11.5303218446000	3.45208130220000	0.0626802324000000
43	1	11.6283192322000	9.35224626700000	0.0186957327000000
44	1	11.4635625758000	11.1378205239000	0.186780589000000
45	1	0.0553416103000000	1.29653761020000	4.48205174880000
46	1	12.7478455950000	3.83123550780000	4.46882762700000
47	1	12.7580098387000	6.35861998530000	4.52204622980000
48	1	12.7859071736000	8.80428356280000	4.50861583390000
49	1	0.0727382218000000	11.3753427928000	4.44238623180000
50	1	2.62867260690000	1.33170223000000	4.49881069560000
51	1	2.59278663130000	3.84044707850000	4.52821559580000
52	1	2.59042791930000	6.29074508440000	4.52615891370000
53	1	2.60536709660000	8.81905366280000	4.55244757580000
54	1	2.55548333900000	11.3840962588000	4.50561437890000
55	1	5.15940134050000	1.35145096040000	4.45809341150000
56	1	5.13685282730000	3.83670886920000	4.49712052190000
57	1	5.12477166840000	6.35169274420000	4.50765154250000
58	1	5.11970571250000	8.86929654080000	4.56111539870000
59	1	5.12206336070000	11.4465076610000	4.51004725810000
60	1	7.76052122850000	1.30062529460000	4.51098713000000
61	1	7.67381017080000	3.84497477480000	4.48379311190000
62	1	7.63047419690000	6.35105177920000	4.46804205180000
63	1	7.66578426350000	8.84499512340000	4.57003055560000
64	1	7.71293830900000	11.4104393572000	4.51973842950000
65	1	10.2319379504000	1.26610233770000	4.45702487390000
66	1	10.2202977360000	3.82558499100000	4.46156875200000
67	1	10.1835432531000	6.28621185230000	4.47058702170000
68	1	10.1383987222000	8.83917079250000	4.49116718300000
69	1	10.2119896328000	11.4256654461000	4.46042096280000
70	1	0.133395799000000	12.6621882298000	1.88141947010000
71	1	0.0409271320000000	2.55346226570000	1.82252434060000
72	1	12.7766491927000	5.15379297160000	1.79786696550000
73	1	0.131297325900000	7.66429673900000	1.80544410380000
74	1	0.124066531600000	10.1762758471000	1.80930131670000
75	1	2.60708126960000	12.6582113356000	1.88433057910000
76	1	2.65638533780000	2.60572857870000	1.82384752580000
77	1	2.63588322650000	5.14295988840000	1.82091677200000
78	1	2.65700823670000	7.63314709190000	1.83300834110000
79	1	2.65617212510000	10.1168882355000	1.84224404250000
80	1	5.10780235740000	12.6834450476000	1.88495028170000
81	1	5.16196488770000	2.57147127130000	1.79835226110000
82	1	5.18652731520000	5.11919763160000	1.80323145180000
83	1	5.12643991550000	7.63412191190000	1.83644976890000
84	1	5.13491235980000	10.1576617223000	1.86855476180000
85	1	7.65497780130000	12.6691413783000	1.80524084710000
86	1	7.65962486850000	2.59996683910000	1.79048923580000
87	1	7.66387943470000	5.11683735950000	1.78569373879072
88	1	7.68499538540000	7.64084714160000	1.79716163820000
89	1	7.65826115040000	10.1230585643000	1.85474793240000
90	1	10.2145198269000	12.6623811570000	1.81606646020000
91	1	10.1761845337000	2.56594790080000	1.79121892010000
92	1	10.2110375620000	5.10149931720000	1.80647972080000
93	1	10.2150521931000	7.60306303250000	1.80923025330000
94	1	10.2218085391000	10.1305386358000	1.82269992090000
95	1	1.36421103140000	12.6672022493000	2.76283336950000
96	1	1.33080042820000	2.60052108040000	2.70232375440000
97	1	1.36777994040000	5.13047491390000	2.69688602650000
98	1	1.39560038260000	7.64482772760000	2.74588489550000
99	1	1.36450703950000	10.1491039515000	2.71942713080000
100	1	3.81610627840000	12.6441223914000	2.79610217860000
101	1	3.90839363290000	2.53170681210000	2.72659199770000
102	1	3.89311060290000	5.07531559280000	2.65451082260000
103	1	3.88987008450000	7.54489676420000	2.77718035310000
104	1	3.88453213730000	10.1326349972000	2.76774994940000
105	1	6.40814063290000	12.7213710923000	2.70855742650000
106	1	6.43760771810000	2.57006773270000	2.66220840860000
107	1	6.39101228160000	5.08393992560000	2.67971746910000
108	1	6.41264326960000	7.68689189300000	2.68693205060000
109	1	6.36949590800000	10.1136910027000	2.76295684400000
110	1	8.89062241660000	12.6551555695000	2.70396213680000
111	1	8.93304361600000	2.55793229330000	2.68441719910000
112	1	8.92644371620000	5.05837213120000	2.67558958920000
113	1	8.94003276020000	7.61290862390000	2.68669348000000
114	1	8.92888240520000	10.1345067672000	2.68636869270000
115	1	11.4629124342000	0.0157885073000000	2.70781361980000
116	1	11.3978205113000	2.57202027700000	2.66052188040000
117	1	11.5209358816000	5.12966175430000	2.69806015320000
118	1	11.4960133151000	7.58760225160000	2.69467177780000
119	1	11.4547750161000	10.1304898066000	2.70602681730000
120	1	1.34763192550000	1.33869776470000	3.60593500190000
121	1	1.35069888960000	3.83207611050000	3.59116972070000
122	1	1.34801196950000	6.33117985670000	3.65316154360000
123	1	1.38131068700000	8.88303994010000	3.63059272040000
124	1	1.32307261000000	11.4187488507000	3.57321260200000
125	1	3.87203511800000	1.31544405180000	3.62158586050000
126	1	3.84500555600000	3.81483341900000	3.62440334600000
127	1	3.88775366440000	6.30296329590000	3.60096916390000
128	1	3.83848224700000	8.79866884580000	3.65513534450000
129	1	3.82322149270000	11.3962732785000	3.68849866190000
130	1	6.46578519970000	1.36028242400000	3.57895326600000
131	1	6.40730589390000	3.77144771080000	3.59399928890000
132	1	6.37293596460000	6.36311579050000	3.56535518270000
133	1	6.39039435000000	8.87177851950000	3.70144248410000
134	1	6.44609430240000	11.4238650675000	3.64876594520000
135	1	8.96372558840000	1.25931841830000	3.54789827000000
136	1	8.95768179290000	3.79105749740000	3.60207195770000
137	1	8.88987119550000	6.32743225480000	3.55936022970000
138	1	8.91757618460000	8.86593406480000	3.60432539480000
139	1	8.95248709220000	11.4007196507000	3.58192146420000
140	1	11.4356897750000	1.29493142060000	3.58127319130000
141	1	11.5000955220000	3.83932934660000	3.56735280850000
142	1	11.4744925758000	6.33512327710000	3.67155776740000
143	1	11.4766487839000	8.83634042890000	3.61490542250000
144	1	11.4407906015000	11.3830135418000	3.55402175280000
145	1	0.0553416103000000	1.29653761020000	8.07685174880000
146	1	12.7478455950000	3.83123550780000	8.06362762700000
147	1	12.7580098387000	6.35861998530000	8.11684622980000
148	1	12.7859071736000	8.80428356280000	8.10341583390000
149	1	0.0727382218000000	11.3753427928000	8.03718623180000
150	1	2.62867260690000	1.33170223000000	8.09361069560000
151	1	2.59278663130000	3.84044707850000	8.12301559580000
152	1	2.59042791930000	6.29074508440000	8.12095891370000
153	1	2.60536709660000	8.81905366280000	8.14724757580000
154	1	2.55548333900000	11.3840962588000	8.10041437890000
155	1	5.15940134050000	1.35145096040000	8.05289341150000
156	1	5.13685282730000	3.83670886920000	8.09192052190000
157	1	5.12477166840000	6.35169274420000	8.10245154250000
158	1	5.11970571250000	8.86929654080000	8.15591539870000
159	1	5.12206336070000	11.4465076610000	8.10484725810000
160	1	7.76052122850000	1.30062529460000	8.10578713000000
161	1	7.67381017080000	3.84497477480000	8.07859311190000
162	1	7.63047419690000	6.35105177920000	8.06284205180000
163	1	7.66578426350000	8.84499512340000	8.16483055560000
164	1	7.71293830900000	11.4104393572000	8.11453842950000
165	1	10.2319379504000	1.26610233770000	8.05182487390000
166	1	10.2202977360000	3.82558499100000	8.05636875200000
167	1	10.1835432531000	6.28621185230000	8.06538702170000
168	1	10.1383987222000	8.83917079250000	8.08596718300000
169	1	10.2119896328000	11.4256654461000	8.05522096280000
170	1	0.133395799000000	12.6621882298000	5.47621947010000
171	1	0.0409271320000000	2.55346226570000	5.41732434060000
172	1	12.7766491927000	5.15379297160000	5.39266696550000
173	1	0.131297325900000	7.66429673900000	5.40024410380000
174	1	0.124066531600000	10.1762758471000	5.40410131670000
175	1	2.60708126960000	12.6582113356000	5.47913057910000
176	1	2.65638533780000	2.60572857870000	5.41864752580000
177	1	2.63588322650000	5.14295988840000	5.41571677200000
178	1	2.65700823670000	7.63314709190000	5.42780834110000
179	1	2.65617212510000	10.1168882355000	5.43704404250000
180	1	5.10780235740000	12.6834450476000	5.47975028170000
181	1	5.16196488770000	2.57147127130000	5.39315226110000
182	1	5.18652731520000	5.11919763160000	5.39803145180000
183	1	5.12643991550000	7.63412191190000	5.43124976890000
184	1	5.13491235980000	10.1576617223000	5.46335476180000
185	1	7.65497780130000	12.6691413783000	5.40004084710000
186	1	7.65962486850000	2.59996683910000	5.38528923580000
187	1	7.66387943470000	5.11683735950000	5.38049373879072
188	1	7.68499538540000	7.64084714160000	5.39196163820000
189	1	7.65826115040000	10.1230585643000	5.44954793240000
190	1	10.2145198269000	12.6623811570000	5.41086646020000
191	1	10.1761845337000	2.56594790080000	5.38601892010000
192	1	10.2110375620000	5.10149931720000	5.40127972080000
193	1	10.2150521931000	7.60306303250000	5.40403025330000
194	1	10.2218085391000	10.1305386358000	5.41749992090000
195	1	1.36421103140000	12.6672022493000	6.35763336950000
196	1	1.33080042820000	2.60052108040000	6.29712375440000
197	1	1.36777994040000	5.13047491390000	6.29168602650000
198	1	1.39560038260000	7.64482772760000	6.34068489550000
199	1	1.36450703950000	10.1491039515000	6.31422713080000
200	1	3.81610627840000	12.6441223914000	6.39090217860000
201	1	3.90839363290000	2.53170681210000	6.32139199770000
202	1	3.89311060290000	5.07531559280000	6.24931082260000
203	1	3.88987008450000	7.54489676420000	6.37198035310000
204	1	3.88453213730000	10.1326349972000	6.36254994940000
205	1	6.40814063290000	12.7213710923000	6.30335742650000
206	1	6.43760771810000	2.57006773270000	6.25700840860000
207	1	6.39101228160000	5.08393992560000	6.27451746910000
208	1	6.41264326960000	7.68689189300000	6.28173205060000
209	1	6.36949590800000	10.1136910027000	6.35775684400000
210	1	8.89062241660000	12.6551555695000	6.29876213680000
211	1	8.93304361600000	2.55793229330000	6.27921719910000
212	1	8.92644371620000	5.05837213120000	6.27038958920000
213	1	8.94003276020000	7.61290862390000	6.28149348000000
214	1	8.92888240520000	10.1345067672000	6.28116869270000
215	1	11.4629124342000	0.0157885073000000	6.30261361980000
216	1	11.3978205113000	2.57202027700000	6.25532188040000
217	1	11.5209358816000	5.12966175430000	6.29286015320000
218	1	11.4960133151000	7.58760225160000	6.28947177780000
219	1	11.4547750161000	10.1304898066000	6.30082681730000
220	1	1.34763192550000	1.33869776470000	7.20073500190000
221	1	1.35069888960000	3.83207611050000	7.18596972070000
222	1	1.34801196950000	6.33117985670000	7.24796154360000
223	1	1.38131068700000	8.88303994010000	7.22539272040000
224	1	1.32307261000000	11.4187488507000	7.16801260200000
225	1	3.87203511800000	1.31544405180000	7.21638586050000
226	1	3.84500555600000	3.81483341900000	7.21920334600000
227	1	3.88775366440000	6.30296329590000	7.19576916390000
228	1	3.83848224700000	8.79866884580000	7.24993534450000
229	1	3.82322149270000	11.3962732785000	7.28329866190000
230	1	6.46578519970000	1.36028242400000	7.17375326600000
231	1	6.40730589390000	3.77144771080000	7.18879928890000
232	1	6.37293596460000	6.36311579050000	7.16015518270000
233	1	6.39039435000000	8.87177851950000	7.29624248410000
234	1	6.44609430240000	11.4238650675000	7.24356594520000
235	1	8.96372558840000	1.25931841830000	7.14269827000000
236	1	8.95768179290000	3.79105749740000	7.19687195770000
237	1	8.88987119550000	6.32743225480000	7.15416022970000
238	1	8.91757618460000	8.86593406480000	7.19912539480000
239	1	8.95248709220000	11.4007196507000	7.17672146420000
240	1	11.4356897750000	1.29493142060000	7.17607319130000
241	1	11.5000955220000	3.83932934660000	7.16215280850000
242	1	11.4744925758000	6.33512327710000	7.26635776740000
243	1	11.4766487839000	8.83634042890000	7.20970542250000
244	1	11.4407906015000	11.3830135418000	7.14882175280000
245	1	0.0553416103000000	1.29653761020000	11.6716517488000
246	1	12.7478455950000	3.83123550780000	11.6584276270000
247	1	12.7580098387000	6.35861998530000	11.7116462298000
248	1	12.7859071736000	8.80428356280000	11.6982158339000
249	1	0.0727382218000000	11.3753427928000	11.6319862318000
250	1	2.62867260690000	1.33170223000000	11.6884106956000
251	1	2.59278663130000	3.84044707850000	11.7178155958000
252	1	2.59042791930000	6.29074508440000	11.7157589137000
253	1	2.60536709660000	8.81905366280000	11.7420475758000
254	1	2.55548333900000	11.3840962588000	11.6952143789000
255	1	5.15940134050000	1.35145096040000	11.6476934115000
256	1	5.13685282730000	3.83670886920000	11.6867205219000
257	1	5.12477166840000	6.35169274420000	11.6972515425000
258	1	5.11970571250000	8.86929654080000	11.7507153987000
259	1	5.12206336070000	11.4465076610000	11.6996472581000
260	1	7.76052122850000	1.30062529460000	11.7005871300000
261	1	7.67381017080000	3.84497477480000	11.6733931119000
262	1	7.63047419690000	6.35105177920000	11.6576420518000
263	1	7.66578426350000	8.84499512340000	11.7596305556000
264	1	7.71293830900000	11.4104393572000	11.7093384295000
265	1	10.2319379504000	1.26610233770000	11.6466248739000
266	1	10.2202977360000	3.82558499100000	11.6511687520000
267	1	10.1835432531000	6.28621185230000	11.6601870217000
268	1	10.1383987222000	8.83917079250000	11.6807671830000
269	1	10.2119896328000	11.4256654461000	11.6500209628000
270	1	0.133395799000000	12.6621882298000	9.07101947010000
271	1	0.0409271320000000	2.55346226570000	9.01212434060000
272	1	12.7766491927000	5.15379297160000	8.98746696550000
273	1	0.131297325900000	7.66429673900000	8.99504410380000
274	1	0.124066531600000	10.1762758471000	8.99890131670000
275	1	2.60708126960000	12.6582113356000	9.07393057910000
276	1	2.65638533780000	2.60572857870000	9.01344752580000
277	1	2.63588322650000	5.14295988840000	9.01051677200000
278	1	2.65700823670000	7.63314709190000	9.02260834110000
279	1	2.65617212510000	10.1168882355000	9.03184404250000
280	1	5.10780235740000	12.6834450476000	9.07455028170000
281	1	5.16196488770000	2.57147127130000	8.98795226110000
282	1	5.18652731520000	5.11919763160000	8.99283145180000
283	1	5.12643991550000	7.63412191190000	9.02604976890000
284	1	5.13491235980000	10.1576617223000	9.05815476180000
285	1	7.65497780130000	12.6691413783000	8.99484084710000
286	1	7.65962486850000	2.59996683910000	8.98008923580000
287	1	7.66387943470000	5.11683735950000	8.97529373879072
288	1	7.68499538540000	7.64084714160000	8.98676163820000
289	1	7.65826115040000	10.1230585643000	9.04434793240000
290	1	10.2145198269000	12.6623811570000	9.00566646020000
291	1	10.1761845337000	2.56594790080000	8.98081892010000
292	1	10.2110375620000	5.10149931720000	8.99607972080000
293	1	10.2150521931000	7.60306303250000	8.99883025330000
294	1	10.2218085391000	10.1305386358000	9.01229992090000
295	1	1.36421103140000	12.6672022493000	9.95243336950000
296	1	1.33080042820000	2.60052108040000	9.89192375440000
297	1	1.36777994040000	5.13047491390000	9.88648602650000
298	1	1.39560038260000	7.64482772760000	9.93548489550000
299	1	1.36450703950000	10.1491039515000	9.90902713080000
300	1	3.81610627840000	12.6441223914000	9.98570217860000
301	1	3.90839363290000	2.53170681210000	9.91619199770000
302	1	3.89311060290000	5.07531559280000	9.84411082260000
303	1	3.88987008450000	7.54489676420000	9.96678035310000
304	1	3.88453213730000	10.1326349972000	9.95734994940000
305	1	6.40814063290000	12.7213710923000	9.89815742650000
306	1	6.43760771810000	2.57006773270000	9.85180840860000
307	1	6.39101228160000	5.08393992560000	9.86931746910000
308	1	6.41264326960000	7.68689189300000	9.87653205060000
309	1	6.36949590800000	10.1136910027000	9.95255684400000
310	1	8.89062241660000	12.6551555695000	9.89356213680000
311	1	8.93304361600000	2.55793229330000	9.87401719910000
312	1	8.92644371620000	5.05837213120000	9.86518958920000
313	1	8.94003276020000	7.61290862390000	9.87629348000000
314	1	8.92888240520000	10.1345067672000	9.87596869270000
315	1	11.4629124342000	0.0157885073000000	9.89741361980000
316	1	11.3978205113000	2.57202027700000	9.85012188040000
317	1	11.5209358816000	5.12966175430000	9.88766015320000
318	1	11.4960133151000	7.58760225160000	9.88427177780000
319	1	11.4547750161000	10.1304898066000	9.89562681730000
320	1	1.34763192550000	1.33869776470000	10.7955350019000
321	1	1.35069888960000	3.83207611050000	10.7807697207000
322	1	1.34801196950000	6.33117985670000	10.8427615436000
323	1	1.38131068700000	8.88303994010000	10.8201927204000
324	1	1.32307261000000	11.4187488507000	10.7628126020000
325	1	3.87203511800000	1.31544405180000	10.8111858605000
326	1	3.84500555600000	3.81483341900000	10.8140033460000
327	1	3.88775366440000	6.30296329590000	10.7905691639000
328	1	3.83848224700000	8.79866884580000	10.8447353445000
329	1	3.82322149270000	11.3962732785000	10.8780986619000
330	1	6.46578519970000	1.36028242400000	10.7685532660000
331	1	6.40730589390000	3.77144771080000	10.7835992889000
332	1	6.37293596460000	6.36311579050000	10.7549551827000
333	1	6.39039435000000	8.87177851950000	10.8910424841000
334	1	6.44609430240000	11.4238650675000	10.8383659452000
335	1	8.96372558840000	1.25931841830000	10.7374982700000
336	1	8.95768179290000	3.79105749740000	10.7916719577000
337	1	8.88987119550000	6.32743225480000	10.7489602297000
338	1	8.91757618460000	8.86593406480000	10.7939253948000
339	1	8.95248709220000	11.4007196507000	10.7715214642000
340	1	11.4356897750000	1.29493142060000	10.7708731913000
341	1	11.5000955220000	3.83932934660000	10.7569528085000
342	1	11.4744925758000	6.33512327710000	10.8611577674000
343	1	11.4766487839000	8.83634042890000	10.8045054225000
344	1	11.4407906015000	11.3830135418000	10.7436217528000
345	1	0.0553416103000000	1.29653761020000	15.2664517488000
346	1	12.7478455950000	3.83123550780000	15.2532276270000
347	1	12.7580098387000	6.35861998530000	15.3064462298000
348	1	12.7859071736000	8.80428356280000	15.2930158339000
349	1	0.0727382218000000	11.3753427928000	15.2267862318000
350	1	2.62867260690000	1.33170223000000	15.2832106956000
351	1	2.59278663130000	3.84044707850000	15.3126155958000
352	1	2.59042791930000	6.29074508440000	15.3105589137000
353	1	2.60536709660000	8.81905366280000	15.3368475758000
354	1	2.55548333900000	11.3840962588000	15.2900143789000
355	1	5.15940134050000	1.35145096040000	15.2424934115000
356	1	5.13685282730000	3.83670886920000	15.2815205219000
357	1	5.12477166840000	6.35169274420000	15.2920515425000
358	1	5.11970571250000	8.86929654080000	15.3455153987000
359	1	5.12206336070000	11.4465076610000	15.2944472581000
360	1	7.76052122850000	1.30062529460000	15.2953871300000
361	1	7.67381017080000	3.84497477480000	15.2681931119000
362	1	7.63047419690000	6.35105177920000	15.2524420518000
363	1	7.66578426350000	8.84499512340000	15.3544305556000
364	1	7.71293830900000	11.4104393572000	15.3041384295000
365	1	10.2319379504000	1.26610233770000	15.2414248739000
366	1	10.2202977360000	3.82558499100000	15.2459687520000
367	1	10.1835432531000	6.28621185230000	15.2549870217000
368	1	10.1383987222000	8.83917079250000	15.2755671830000
369	1	10.2119896328000	11.4256654461000	15.2448209628000
370	1	0.133395799000000	12.6621882298000	12.6658194701000
371	1	0.0409271320000000	2.55346226570000	12.6069243406000
372	1	12.7766491927000	5.15379297160000	12.5822669655000
373	1	0.131297325900000	7.66429673900000	12.5898441038000
374	1	0.124066531600000	10.1762758471000	12.5937013167000
375	1	2.60708126960000	12.6582113356000	12.6687305791000
376	1	2.65638533780000	2.60572857870000	12.6082475258000
377	1	2.63588322650000	5.14295988840000	12.6053167720000
378	1	2.65700823670000	7.63314709190000	12.6174083411000
379	1	2.65617212510000	10.1168882355000	12.6266440425000
380	1	5.10780235740000	12.6834450476000	12.6693502817000
381	1	5.16196488770000	2.57147127130000	12.5827522611000
382	1	5.18652731520000	5.11919763160000	12.5876314518000
383	1	5.12643991550000	7.63412191190000	12.6208497689000
384	1	5.13491235980000	10.1576617223000	12.6529547618000
385	1	7.65497780130000	12.6691413783000	12.5896408471000
386	1	7.65962486850000	2.59996683910000	12.5748892358000
387	1	7.66387943470000	5.11683735950000	12.5700937387907
388	1	7.68499538540000	7.64084714160000	12.5815616382000
389	1	7.65826115040000	10.1230585643000	12.6391479324000
390	1	10.2145198269000	12.6623811570000	12.6004664602000
391	1	10.1761845337000	2.56594790080000	12.5756189201000
392	1	10.2110375620000	5.10149931720000	12.5908797208000
393	1	10.2150521931000	7.60306303250000	12.5936302533000
394	1	10.2218085391000	10.1305386358000	12.6070999209000
395	1	1.36421103140000	12.6672022493000	13.5472333695000
396	1	1.33080042820000	2.60052108040000	13.4867237544000
397	1	1.36777994040000	5.13047491390000	13.4812860265000
398	1	1.39560038260000	7.64482772760000	13.5302848955000
399	1	1.36450703950000	10.1491039515000	13.5038271308000
400	1	3.81610627840000	12.6441223914000	13.5805021786000
401	1	3.90839363290000	2.53170681210000	13.5109919977000
402	1	3.89311060290000	5.07531559280000	13.4389108226000
403	1	3.88987008450000	7.54489676420000	13.5615803531000
404	1	3.88453213730000	10.1326349972000	13.5521499494000
405	1	6.40814063290000	12.7213710923000	13.4929574265000
406	1	6.43760771810000	2.57006773270000	13.4466084086000
407	1	6.39101228160000	5.08393992560000	13.4641174691000
408	1	6.41264326960000	7.68689189300000	13.4713320506000
409	1	6.36949590800000	10.1136910027000	13.5473568440000
410	1	8.89062241660000	12.6551555695000	13.4883621368000
411	1	8.93304361600000	2.55793229330000	13.4688171991000
412	1	8.92644371620000	5.05837213120000	13.4599895892000
413	1	8.94003276020000	7.61290862390000	13.4710934800000
414	1	8.92888240520000	10.1345067672000	13.4707686927000
415	1	11.4629124342000	0.0157885073000000	13.4922136198000
416	1	11.3978205113000	2.57202027700000	13.4449218804000
417	1	11.5209358816000	5.12966175430000	13.4824601532000
418	1	11.4960133151000	7.58760225160000	13.4790717778000
419	1	11.4547750161000	10.1304898066000	13.4904268173000
420	1	1.34763192550000	1.33869776470000	14.3903350019000
421	1	1.35069888960000	3.83207611050000	14.3755697207000
422	1	1.34801196950000	6.33117985670000	14.4375615436000
423	1	1.38131068700000	8.88303994010000	14.4149927204000
424	1	1.32307261000000	11.4187488507000	14.3576126020000
425	1	3.87203511800000	1.31544405180000	14.4059858605000
426	1	3.84500555600000	3.81483341900000	14.4088033460000
427	1	3.88775366440000	6.30296329590000	14.3853691639000
428	1	3.83848224700000	8.79866884580000	14.4395353445000
429	1	3.82322149270000	11.3962732785000	14.4728986619000
430	1	6.46578519970000	1.36028242400000	14.3633532660000
431	1	6.40730589390000	3.77144771080000	14.3783992889000
432	1	6.37293596460000	6.36311579050000	14.3497551827000
433	1	6.39039435000000	8.87177851950000	14.4858424841000
434	1	6.44609430240000	11.4238650675000	14.4331659452000
435	1	8.96372558840000	1.25931841830000	14.3322982700000
436	1	8.95768179290000	3.79105749740000	14.3864719577000
437	1	8.88987119550000	6.32743225480000	14.3437602297000
438	1	8.91757618460000	8.86593406480000	14.3887253948000
439	1	8.95248709220000	11.4007196507000	14.3663214642000
440	1	11.4356897750000	1.29493142060000	14.3656731913000
441	1	11.5000955220000	3.83932934660000	14.3517528085000
442	1	11.4744925758000	6.33512327710000	14.4559577674000
443	1	11.4766487839000	8.83634042890000	14.3993054225000
444	1	11.4407906015000	11.3830135418000	14.3384217528000
445	1	0.0553416103000000	1.29653761020000	18.8612517488000
446	1	12.7478455950000	3.83123550780000	18.8480276270000
447	1	12.7580098387000	6.35861998530000	18.9012462298000
448	1	12.7859071736000	8.80428356280000	18.8878158339000
449	1	0.0727382218000000	11.3753427928000	18.8215862318000
450	1	2.62867260690000	1.33170223000000	18.8780106956000
451	1	2.59278663130000	3.84044707850000	18.9074155958000
452	1	2.59042791930000	6.29074508440000	18.9053589137000
453	1	2.60536709660000	8.81905366280000	18.9316475758000
454	1	2.55548333900000	11.3840962588000	18.8848143789000
455	1	5.15940134050000	1.35145096040000	18.8372934115000
456	1	5.13685282730000	3.83670886920000	18.8763205219000
457	1	5.12477166840000	6.35169274420000	18.8868515425000
458	1	5.11970571250000	8.86929654080000	18.9403153987000
459	1	5.12206336070000	11.4465076610000	18.8892472581000
460	1	7.76052122850000	1.30062529460000	18.8901871300000
461	1	7.67381017080000	3.84497477480000	18.8629931119000
462	1	7.63047419690000	6.35105177920000	18.8472420518000
463	1	7.66578426350000	8.84499512340000	18.9492305556000
464	1	7.71293830900000	11.4104393572000	18.8989384295000
465	1	10.2319379504000	1.26610233770000	18.8362248739000
466	1	10.2202977360000	3.82558499100000	18.8407687520000
467	1	10.1835432531000	6.28621185230000	18.8497870217000
468	1	10.1383987222000	8.83917079250000	18.8703671830000
469	1	10.2119896328000	11.4256654461000	18.8396209628000
470	1	0.133395799000000	12.6621882298000	16.2606194701000
471	1	0.0409271320000000	2.55346226570000	16.2017243406000
472	1	12.7766491927000	5.15379297160000	16.1770669655000
473	1	0.131297325900000	7.66429673900000	16.1846441038000
474	1	0.124066531600000	10.1762758471000	16.1885013167000
475	1	2.60708126960000	12.6582113356000	16.2635305791000
476	1	2.65638533780000	2.60572857870000	16.2030475258000
477	1	2.63588322650000	5.14295988840000	16.2001167720000
478	1	2.65700823670000	7.63314709190000	16.2122083411000
479	1	2.65617212510000	10.1168882355000	16.2214440425000
480	1	5.10780235740000	12.6834450476000	16.2641502817000
481	1	5.16196488770000	2.57147127130000	16.1775522611000
482	1	5.18652731520000	5.11919763160000	16.1824314518000
483	1	5.12643991550000	7.63412191190000	16.2156497689000
484	1	5.13491235980000	10.1576617223000	16.2477547618000
485	1	7.65497780130000	12.6691413783000	16.1844408471000
486	1	7.65962486850000	2.59996683910000	16.1696892358000
487	1	7.66387943470000	5.11683735950000	16.1648937387907
488	1	7.68499538540000	7.64084714160000	16.1763616382000
489	1	7.65826115040000	10.1230585643000	16.2339479324000
490	1	10.2145198269000	12.6623811570000	16.1952664602000
491	1	10.1761845337000	2.56594790080000	16.1704189201000
492	1	10.2110375620000	5.10149931720000	16.1856797208000
493	1	10.2150521931000	7.60306303250000	16.1884302533000
494	1	10.2218085391000	10.1305386358000	16.2018999209000
495	1	1.36421103140000	12.6672022493000	17.1420333695000
496	1	1.33080042820000	2.60052108040000	17.0815237544000
497	1	1.36777994040000	5.13047491390000	17.0760860265000
498	1	1.39560038260000	7.64482772760000	17.1250848955000
499	1	1.36450703950000	10.1491039515000	17.0986271308000
500	1	3.81610627840000	12.6441223914000	17.1753021786000
501	1	3.90839363290000	2.53170681210000	17.1057919977000
502	1	3.89311060290000	5.07531559280000	17.0337108226000
503	1	3.88987008450000	7.54489676420000	17.1563803531000
504	1	3.88453213730000	10.1326349972000	17.1469499494000
505	1	6.40814063290000	12.7213710923000	17.0877574265000
506	1	6.43760771810000	2.57006773270000	17.0414084086000
507	1	6.39101228160000	5.08393992560000	17.0589174691000
508	1	6.41264326960000	7.68689189300000	17.0661320506000
509	1	6.36949590800000	10.1136910027000	17.1421568440000
510	1	8.89062241660000	12.6551555695000	17.0831621368000
511	1	8.93304361600000	2.55793229330000	17.0636171991000
512	1	8.92644371620000	5.05837213120000	17.0547895892000
513	1	8.94003276020000	7.61290862390000	17.0658934800000
514	1	8.92888240520000	10.1345067672000	17.0655686927000
515	1	11.4629124342000	0.0157885073000000	17.0870136198000
516	1	11.3978205113000	2.57202027700000	17.0397218804000
517	1	11.5209358816000	5.12966175430000	17.0772601532000
518	1	11.4960133151000	7.58760225160000	17.0738717778000
519	1	11.4547750161000	10.1304898066000	17.0852268173000
520	1	1.34763192550000	1.33869776470000	17.9851350019000
521	1	1.35069888960000	3.83207611050000	17.9703697207000
522	1	1.34801196950000	6.33117985670000	18.0323615436000