# LAMMPS data file written by OVITO Basic 3.7.12
2496 atoms
2 atom types
0.0 7.6233661782 xlo xhi
0.0 15.2467323564 ylo yhi
0.0 178.2889082419 zlo zhi

Masses

1 196.96655  # Au
2 12.0107  # C

Atoms  # atomic

1	1	-7.07434322330000e-07	-1.62648297080000e-07	0.0177734785000006
2	1	-9.45974589710000e-09	-3.44822340240000e-08	3.81177842540000
3	1	-4.83382555090000e-09	1.41617291420000e-08	7.62224045650000
4	1	-1.84814569850000e-08	3.81168287140000	0.00160025549999965
5	1	-1.51174964790000e-08	3.81168308930000	3.81216915560000
6	1	1.62543469690000e-08	3.81168303320000	7.62220646960000
7	1	-7.07681212660000e-07	7.62336700460000	0.0177737516000001
8	1	-7.08909780630000e-09	7.62336616710000	3.81177843380000
9	1	-5.92381063540000e-09	7.62336618910000	7.62224032920000
10	1	-2.47491729160000e-08	11.4350488839000	0.00160005010000042
11	1	-1.21092422380000e-08	11.4350492461000	3.81216914170000
12	1	2.10560171620000e-08	11.4350492304000	7.62220642660000
13	1	3.81168452440000	-1.90938355870000e-07	0.102496548400000
14	1	3.81168307770000	-1.65614428410000e-08	3.81184129640000
15	1	3.81168306810000	1.77929702030000e-08	7.62332482740000
16	1	3.81168320610000	3.81168205300000	0.00983945139999953
17	1	3.81168307710000	3.81168306750000	3.81169283510000
18	1	3.81168306680000	3.81168306450000	7.62299756930000
19	1	3.81168452470000	7.62336959740000	0.102496932200001
20	1	3.81168308060000	7.62336615480000	3.81184133620000
21	1	3.81168306560000	7.62336619460000	7.62332485520000
22	1	3.81168320290000	11.4350463077000	0.00983937019999992
23	1	3.81168307750000	11.4350492964000	3.81169280640000
24	1	3.81168306520000	11.4350492109000	7.62299758210000
25	1	9.77038968320000e-09	1.90600696250000	1.90717187480000
26	1	-1.09279467610000e-08	1.90569314540000	5.71734192370000
27	1	-1.46219743230000e-07	1.90860591870000	9.52880600370000
28	1	1.18785492670000e-08	5.71735920850000	1.90717187910000
29	1	-8.47204199200000e-09	5.71767299540000	5.71734186680000
30	1	-1.40340270860000e-07	5.71475995830000	9.52880548580000
31	1	1.13593035010000e-08	9.52937309600000	1.90717186680000
32	1	-1.37257099510000e-08	9.52905932080000	5.71734186910000
33	1	-1.41019200990000e-07	9.53197210330000	9.52880606530000
34	1	1.25849052200000e-08	13.3407253620000	1.90717186040000
35	1	-1.49973651880000e-08	13.3410391901000	5.71734191520000
36	1	-1.43767342160000e-07	13.3381262187000	9.52880534460000
37	1	3.81168306100000	1.90624742980000	1.90638113980000
38	1	3.81168307560000	1.90565130820000	5.71760454890000
39	1	3.81168327750000	1.91539610670000	9.51309754950000
40	1	3.81168306290000	5.71711869810000	1.90638113020000
41	1	3.81168307490000	5.71771480940000	5.71760449280000
42	1	3.81168327750000	5.70796949210000	9.51309524020000
43	1	3.81168305890000	9.52961361700000	1.90638125010000
44	1	3.81168307270000	9.52901750650000	5.71760448350000
45	1	3.81168327590000	9.53876247490000	9.51309906470000
46	1	3.81168306020000	13.3404848704000	1.90638110090000
47	1	3.81168307350000	13.3410809975000	5.71760453610000
48	1	3.81168327950000	13.3313357525000	9.51309382520000
49	1	1.90530491990000	-4.32188129210000e-08	1.90698102040000
50	1	1.90590352280000	-2.02875002810000e-08	5.71736229110000
51	1	1.90535375620000	-4.70504925570000e-07	9.53021043270000
52	1	1.90558473080000	3.81168312570000	1.90646422550000
53	1	1.90584953170000	3.81168305790000	5.71741085680000
54	1	1.91206261970000	3.81168329140000	9.51035775620000
55	1	1.90530493250000	7.62336612090000	1.90698097690000
56	1	1.90590354510000	7.62336616310000	5.71736222260000
57	1	1.90535384590000	7.62336573290000	9.53020932320000
58	1	1.90558473760000	11.4350492192000	1.90646425320000
59	1	1.90584953350000	11.4350492524000	5.71741084480000
60	1	1.91206270740000	11.4350502077000	9.51035764500000
61	1	5.71806122010000	-4.48766373950000e-08	1.90698100680000
62	1	5.71746262800000	-1.97349083860000e-08	5.71736231870000
63	1	5.71801236280000	-4.74126879850000e-07	9.53021037350000
64	1	5.71778140830000	3.81168312860000	1.90646414770000
65	1	5.71751663640000	3.81168305970000	5.71741085660000
66	1	5.71130330690000	3.81168328640000	9.51035608240000
67	1	5.71806121520000	7.62336611850000	1.90698096790000
68	1	5.71746260520000	7.62336616140000	5.71736225220000
69	1	5.71801226520000	7.62336573830000	9.53020926040000
70	1	5.71778140250000	11.4350492182000	1.90646417540000
71	1	5.71751662400000	11.4350492530000	5.71741084810000
72	1	5.71130321550000	11.4350502123000	9.51035596490000
73	1	1.91551006790000	1.89247581510000	0.0244413923000000
74	1	1.90579632340000	1.90585474130000	3.81188594640000
75	1	1.90553955020000	1.90561095900000	7.62277388490000
76	1	1.91550912340000	5.73088995110000	0.0244391028000006
77	1	1.90579634410000	5.71751143260000	3.81188594320000
78	1	1.90553952910000	5.71775518200000	7.62277391570000
79	1	1.91551097980000	9.51584184590000	0.0244437338000001
80	1	1.90579633170000	9.52922090340000	3.81188592460000
81	1	1.90553953250000	9.52897715670000	7.62277394040000
82	1	1.91550810600000	13.3542560979000	0.0244363390000011
83	1	1.90579632480000	13.3408775852000	3.81188591680000
84	1	1.90553953300000	13.3411213821000	7.62277386930000
85	1	5.70785584750000	1.89247482090000	0.0244433695000001
86	1	5.71756983450000	1.90585474570000	3.81188593320000
87	1	5.71782659540000	1.90561095300000	7.62277392860000
88	1	5.70785679890000	5.73089093980000	0.0244410865999996
89	1	5.71756981420000	5.71751143070000	3.81188592580000
90	1	5.71782661850000	5.71775518920000	7.62277396240000
91	1	5.70785492920000	9.51584085900000	0.0244457177000008
92	1	5.71756982720000	9.52922090600000	3.81188591000000
93	1	5.71782661430000	9.52897714860000	7.62277398270000
94	1	5.70785780880000	13.3542570863000	0.0244383274000004
95	1	5.71756983510000	13.3408775813000	3.81188590030000
96	1	5.71782661200000	13.3411213904000	7.62277391030000
97	1	-7.07434322330000e-07	-1.62648297080000e-07	11.4345734785000
98	1	-9.45974589710000e-09	-3.44822340240000e-08	15.2285784254000
99	1	-4.83382555090000e-09	1.41617291420000e-08	19.0390404565000
100	1	-1.84814569850000e-08	3.81168287140000	11.4184002555000
101	1	-1.51174964790000e-08	3.81168308930000	15.2289691556000
102	1	1.62543469690000e-08	3.81168303320000	19.0390064696000
103	1	-7.07681212660000e-07	7.62336700460000	11.4345737516000
104	1	-7.08909780630000e-09	7.62336616710000	15.2285784338000
105	1	-5.92381063540000e-09	7.62336618910000	19.0390403292000
106	1	-2.47491729160000e-08	11.4350488839000	11.4184000501000
107	1	-1.21092422380000e-08	11.4350492461000	15.2289691417000
108	1	2.10560171620000e-08	11.4350492304000	19.0390064266000
109	1	3.81168452440000	-1.90938355870000e-07	11.5192965484000
110	1	3.81168307770000	-1.65614428410000e-08	15.2286412964000
111	1	3.81168306810000	1.77929702030000e-08	19.0401248274000
112	1	3.81168320610000	3.81168205300000	11.4266394514000
113	1	3.81168307710000	3.81168306750000	15.2284928351000
114	1	3.81168306680000	3.81168306450000	19.0397975693000
115	1	3.81168452470000	7.62336959740000	11.5192969322000
116	1	3.81168308060000	7.62336615480000	15.2286413362000
117	1	3.81168306560000	7.62336619460000	19.0401248552000
118	1	3.81168320290000	11.4350463077000	11.4266393702000
119	1	3.81168307750000	11.4350492964000	15.2284928064000
120	1	3.81168306520000	11.4350492109000	19.0397975821000
121	1	9.77038968320000e-09	1.90600696250000	13.3239718748000
122	1	-1.09279467610000e-08	1.90569314540000	17.1341419237000
123	1	-1.46219743230000e-07	1.90860591870000	20.9456060037000
124	1	1.18785492670000e-08	5.71735920850000	13.3239718791000
125	1	-8.47204199200000e-09	5.71767299540000	17.1341418668000
126	1	-1.40340270860000e-07	5.71475995830000	20.9456054858000
127	1	1.13593035010000e-08	9.52937309600000	13.3239718668000
128	1	-1.37257099510000e-08	9.52905932080000	17.1341418691000
129	1	-1.41019200990000e-07	9.53197210330000	20.9456060653000
130	1	1.25849052200000e-08	13.3407253620000	13.3239718604000
131	1	-1.49973651880000e-08	13.3410391901000	17.1341419152000
132	1	-1.43767342160000e-07	13.3381262187000	20.9456053446000
133	1	3.81168306100000	1.90624742980000	13.3231811398000
134	1	3.81168307560000	1.90565130820000	17.1344045489000
135	1	3.81168327750000	1.91539610670000	20.9298975495000
136	1	3.81168306290000	5.71711869810000	13.3231811302000
137	1	3.81168307490000	5.71771480940000	17.1344044928000
138	1	3.81168327750000	5.70796949210000	20.9298952402000
139	1	3.81168305890000	9.52961361700000	13.3231812501000
140	1	3.81168307270000	9.52901750650000	17.1344044835000
141	1	3.81168327590000	9.53876247490000	20.9298990647000
142	1	3.81168306020000	13.3404848704000	13.3231811009000
143	1	3.81168307350000	13.3410809975000	17.1344045361000
144	1	3.81168327950000	13.3313357525000	20.9298938252000
145	1	1.90530491990000	-4.32188129210000e-08	13.3237810204000
146	1	1.90590352280000	-2.02875002810000e-08	17.1341622911000
147	1	1.90535375620000	-4.70504925570000e-07	20.9470104327000
148	1	1.90558473080000	3.81168312570000	13.3232642255000
149	1	1.90584953170000	3.81168305790000	17.1342108568000
150	1	1.91206261970000	3.81168329140000	20.9271577562000
151	1	1.90530493250000	7.62336612090000	13.3237809769000
152	1	1.90590354510000	7.62336616310000	17.1341622226000
153	1	1.90535384590000	7.62336573290000	20.9470093232000
154	1	1.90558473760000	11.4350492192000	13.3232642532000
155	1	1.90584953350000	11.4350492524000	17.1342108448000
156	1	1.91206270740000	11.4350502077000	20.9271576450000
157	1	5.71806122010000	-4.48766373950000e-08	13.3237810068000
158	1	5.71746262800000	-1.97349083860000e-08	17.1341623187000
159	1	5.71801236280000	-4.74126879850000e-07	20.9470103735000
160	1	5.71778140830000	3.81168312860000	13.3232641477000
161	1	5.71751663640000	3.81168305970000	17.1342108566000
162	1	5.71130330690000	3.81168328640000	20.9271560824000
163	1	5.71806121520000	7.62336611850000	13.3237809679000
164	1	5.71746260520000	7.62336616140000	17.1341622522000
165	1	5.71801226520000	7.62336573830000	20.9470092604000
166	1	5.71778140250000	11.4350492182000	13.3232641754000
167	1	5.71751662400000	11.4350492530000	17.1342108481000
168	1	5.71130321550000	11.4350502123000	20.9271559649000
169	1	1.91551006790000	1.89247581510000	11.4412413923000
170	1	1.90579632340000	1.90585474130000	15.2286859464000
171	1	1.90553955020000	1.90561095900000	19.0395738849000
172	1	1.91550912340000	5.73088995110000	11.4412391028000
173	1	1.90579634410000	5.71751143260000	15.2286859432000
174	1	1.90553952910000	5.71775518200000	19.0395739157000
175	1	1.91551097980000	9.51584184590000	11.4412437338000
176	1	1.90579633170000	9.52922090340000	15.2286859246000
177	1	1.90553953250000	9.52897715670000	19.0395739404000
178	1	1.91550810600000	13.3542560979000	11.4412363390000
179	1	1.90579632480000	13.3408775852000	15.2286859168000
180	1	1.90553953300000	13.3411213821000	19.0395738693000
181	1	5.70785584750000	1.89247482090000	11.4412433695000
182	1	5.71756983450000	1.90585474570000	15.2286859332000
183	1	5.71782659540000	1.90561095300000	19.0395739286000
184	1	5.70785679890000	5.73089093980000	11.4412410866000
185	1	5.71756981420000	5.71751143070000	15.2286859258000
186	1	5.71782661850000	5.71775518920000	19.0395739624000
187	1	5.70785492920000	9.51584085900000	11.4412457177000
188	1	5.71756982720000	9.52922090600000	15.2286859100000
189	1	5.71782661430000	9.52897714860000	19.0395739827000
190	1	5.70785780880000	13.3542570863000	11.4412383274000
191	1	5.71756983510000	13.3408775813000	15.2286859003000
192	1	5.71782661200000	13.3411213904000	19.0395739103000
193	1	-7.07434322330000e-07	-1.62648297080000e-07	22.8513734785000
194	1	-9.45974589710000e-09	-3.44822340240000e-08	26.6453784254000
195	1	-4.83382555090000e-09	1.41617291420000e-08	30.4558404565000
196	1	-1.84814569850000e-08	3.81168287140000	22.8352002555000
197	1	-1.51174964790000e-08	3.81168308930000	26.6457691556000
198	1	1.62543469690000e-08	3.81168303320000	30.4558064696000
199	1	-7.07681212660000e-07	7.62336700460000	22.8513737516000
200	1	-7.08909780630000e-09	7.62336616710000	26.6453784338000
201	1	-5.92381063540000e-09	7.62336618910000	30.4558403292000
202	1	-2.47491729160000e-08	11.4350488839000	22.8352000501000
203	1	-1.21092422380000e-08	11.4350492461000	26.6457691417000
204	1	2.10560171620000e-08	11.4350492304000	30.4558064266000
205	1	3.81168452440000	-1.90938355870000e-07	22.9360965484000
206	1	3.81168307770000	-1.65614428410000e-08	26.6454412964000
207	1	3.81168306810000	1.77929702030000e-08	30.4569248274000
208	1	3.81168320610000	3.81168205300000	22.8434394514000
209	1	3.81168307710000	3.81168306750000	26.6452928351000
210	1	3.81168306680000	3.81168306450000	30.4565975693000
211	1	3.81168452470000	7.62336959740000	22.9360969322000
212	1	3.81168308060000	7.62336615480000	26.6454413362000
213	1	3.81168306560000	7.62336619460000	30.4569248552000
214	1	3.81168320290000	11.4350463077000	22.8434393702000
215	1	3.81168307750000	11.4350492964000	26.6452928064000
216	1	3.81168306520000	11.4350492109000	30.4565975821000
217	1	9.77038968320000e-09	1.90600696250000	24.7407718748000
218	1	-1.09279467610000e-08	1.90569314540000	28.5509419237000
219	1	-1.46219743230000e-07	1.90860591870000	32.3624060037000
220	1	1.18785492670000e-08	5.71735920850000	24.7407718791000
221	1	-8.47204199200000e-09	5.71767299540000	28.5509418668000
222	1	-1.40340270860000e-07	5.71475995830000	32.3624054858000
223	1	1.13593035010000e-08	9.52937309600000	24.7407718668000
224	1	-1.37257099510000e-08	9.52905932080000	28.5509418691000
225	1	-1.41019200990000e-07	9.53197210330000	32.3624060653000
226	1	1.25849052200000e-08	13.3407253620000	24.7407718604000
227	1	-1.49973651880000e-08	13.3410391901000	28.5509419152000
228	1	-1.43767342160000e-07	13.3381262187000	32.3624053446000
229	1	3.81168306100000	1.90624742980000	24.7399811398000
230	1	3.81168307560000	1.90565130820000	28.5512045489000
231	1	3.81168327750000	1.91539610670000	32.3466975495000
232	1	3.81168306290000	5.71711869810000	24.7399811302000
233	1	3.81168307490000	5.71771480940000	28.5512044928000
234	1	3.81168327750000	5.70796949210000	32.3466952402000
235	1	3.81168305890000	9.52961361700000	24.7399812501000
236	1	3.81168307270000	9.52901750650000	28.5512044835000
237	1	3.81168327590000	9.53876247490000	32.3466990647000
238	1	3.81168306020000	13.3404848704000	24.7399811009000
239	1	3.81168307350000	13.3410809975000	28.5512045361000
240	1	3.81168327950000	13.3313357525000	32.3466938252000
241	1	1.90530491990000	-4.32188129210000e-08	24.7405810204000
242	1	1.90590352280000	-2.02875002810000e-08	28.5509622911000
243	1	1.90535375620000	-4.70504925570000e-07	32.3638104327000
244	1	1.90558473080000	3.81168312570000	24.7400642255000
245	1	1.90584953170000	3.81168305790000	28.5510108568000
246	1	1.91206261970000	3.81168329140000	32.3439577562000
247	1	1.90530493250000	7.62336612090000	24.7405809769000
248	1	1.90590354510000	7.62336616310000	28.5509622226000
249	1	1.90535384590000	7.62336573290000	32.3638093232000
250	1	1.90558473760000	11.4350492192000	24.7400642532000
251	1	1.90584953350000	11.4350492524000	28.5510108448000
252	1	1.91206270740000	11.4350502077000	32.3439576450000
253	1	5.71806122010000	-4.48766373950000e-08	24.7405810068000
254	1	5.71746262800000	-1.97349083860000e-08	28.5509623187000
255	1	5.71801236280000	-4.74126879850000e-07	32.3638103735000
256	1	5.71778140830000	3.81168312860000	24.7400641477000
257	1	5.71751663640000	3.81168305970000	28.5510108566000
258	1	5.71130330690000	3.81168328640000	32.3439560824000
259	1	5.71806121520000	7.62336611850000	24.7405809679000
260	1	5.71746260520000	7.62336616140000	28.5509622522000
261	1	5.71801226520000	7.62336573830000	32.3638092604000
262	1	5.71778140250000	11.4350492182000	24.7400641754000
263	1	5.71751662400000	11.4350492530000	28.5510108481000
264	1	5.71130321550000	11.4350502123000	32.3439559649000
265	1	1.91551006790000	1.89247581510000	22.8580413923000
266	1	1.90579632340000	1.90585474130000	26.6454859464000
267	1	1.90553955020000	1.90561095900000	30.4563738849000
268	1	1.91550912340000	5.73088995110000	22.8580391028000
269	1	1.90579634410000	5.71751143260000	26.6454859432000
270	1	1.90553952910000	5.71775518200000	30.4563739157000
271	1	1.91551097980000	9.51584184590000	22.8580437338000
272	1	1.90579633170000	9.52922090340000	26.6454859246000
273	1	1.90553953250000	9.52897715670000	30.4563739404000
274	1	1.91550810600000	13.3542560979000	22.8580363390000
275	1	1.90579632480000	13.3408775852000	26.6454859168000
276	1	1.90553953300000	13.3411213821000	30.4563738693000
277	1	5.70785584750000	1.89247482090000	22.8580433695000
278	1	5.71756983450000	1.90585474570000	26.6454859332000
279	1	5.71782659540000	1.90561095300000	30.4563739286000
280	1	5.70785679890000	5.73089093980000	22.8580410866000
281	1	5.71756981420000	5.71751143070000	26.6454859258000
282	1	5.71782661850000	5.71775518920000	30.4563739624000
283	1	5.70785492920000	9.51584085900000	22.8580457177000
284	1	5.71756982720000	9.52922090600000	26.6454859100000
285	1	5.71782661430000	9.52897714860000	30.4563739827000
286	1	5.70785780880000	13.3542570863000	22.8580383274000
287	1	5.71756983510000	13.3408775813000	26.6454859003000
288	1	5.71782661200000	13.3411213904000	30.4563739103000
289	1	-7.07434322330000e-07	-1.62648297080000e-07	34.2681734785000
290	1	-9.45974589710000e-09	-3.44822340240000e-08	38.0621784254000
291	1	-4.83382555090000e-09	1.41617291420000e-08	41.8726404565000
292	1	-1.84814569850000e-08	3.81168287140000	34.2520002555000
293	1	-1.51174964790000e-08	3.81168308930000	38.0625691556000
294	1	1.62543469690000e-08	3.81168303320000	41.8726064696000
295	1	-7.07681212660000e-07	7.62336700460000	34.2681737516000
296	1	-7.08909780630000e-09	7.62336616710000	38.0621784338000
297	1	-5.92381063540000e-09	7.62336618910000	41.8726403292000
298	1	-2.47491729160000e-08	11.4350488839000	34.2520000501000
299	1	-1.21092422380000e-08	11.4350492461000	38.0625691417000
300	1	2.10560171620000e-08	11.4350492304000	41.8726064266000
301	1	3.81168452440000	-1.90938355870000e-07	34.3528965484000
302	1	3.81168307770000	-1.65614428410000e-08	38.0622412964000
303	1	3.81168306810000	1.77929702030000e-08	41.8737248274000
304	1	3.81168320610000	3.81168205300000	34.2602394514000
305	1	3.81168307710000	3.81168306750000	38.0620928351000
306	1	3.81168306680000	3.81168306450000	41.8733975693000
307	1	3.81168452470000	7.62336959740000	34.3528969322000
308	1	3.81168308060000	7.62336615480000	38.0622413362000
309	1	3.81168306560000	7.62336619460000	41.8737248552000
310	1	3.81168320290000	11.4350463077000	34.2602393702000
311	1	3.81168307750000	11.4350492964000	38.0620928064000
312	1	3.81168306520000	11.4350492109000	41.8733975821000
313	1	9.77038968320000e-09	1.90600696250000	36.1575718748000
314	1	-1.09279467610000e-08	1.90569314540000	39.9677419237000
315	1	-1.46219743230000e-07	1.90860591870000	43.7792060037000
316	1	1.18785492670000e-08	5.71735920850000	36.1575718791000
317	1	-8.47204199200000e-09	5.71767299540000	39.9677418668000
318	1	-1.40340270860000e-07	5.71475995830000	43.7792054858000
319	1	1.13593035010000e-08	9.52937309600000	36.1575718668000
320	1	-1.37257099510000e-08	9.52905932080000	39.9677418691000
321	1	-1.41019200990000e-07	9.53197210330000	43.7792060653000
322	1	1.25849052200000e-08	13.3407253620000	36.1575718604000
323	1	-1.49973651880000e-08	13.3410391901000	39.9677419152000
324	1	-1.43767342160000e-07	13.3381262187000	43.7792053446000
325	1	3.81168306100000	1.90624742980000	36.1567811398000
326	1	3.81168307560000	1.90565130820000	39.9680045489000
327	1	3.81168327750000	1.91539610670000	43.7634975495000
328	1	3.81168306290000	5.71711869810000	36.1567811302000
329	1	3.81168307490000	5.71771480940000	39.9680044928000
330	1	3.81168327750000	5.70796949210000	43.7634952402000
331	1	3.81168305890000	9.52961361700000	36.1567812501000
332	1	3.81168307270000	9.52901750650000	39.9680044835000
333	1	3.81168327590000	9.53876247490000	43.7634990647000
334	1	3.81168306020000	13.3404848704000	36.1567811009000
335	1	3.81168307350000	13.3410809975000	39.9680045361000
336	1	3.81168327950000	13.3313357525000	43.7634938252000
337	1	1.90530491990000	-4.32188129210000e-08	36.1573810204000
338	1	1.90590352280000	-2.02875002810000e-08	39.9677622911000
339	1	1.90535375620000	-4.70504925570000e-07	43.7806104327000
340	1	1.90558473080000	3.81168312570000	36.1568642255000
341	1	1.90584953170000	3.81168305790000	39.9678108568000
342	1	1.91206261970000	3.81168329140000	43.7607577562000
343	1	1.90530493250000	7.62336612090000	36.1573809769000
344	1	1.90590354510000	7.62336616310000	39.9677622226000
345	1	1.90535384590000	7.62336573290000	43.7806093232000
346	1	1.90558473760000	11.4350492192000	36.1568642532000
347	1	1.90584953350000	11.4350492524000	39.9678108448000
348	1	1.91206270740000	11.4350502077000	43.7607576450000
349	1	5.71806122010000	-4.48766373950000e-08	36.1573810068000
350	1	5.71746262800000	-1.97349083860000e-08	39.9677623187000
351	1	5.71801236280000	-4.74126879850000e-07	43.7806103735000
352	1	5.71778140830000	3.81168312860000	36.1568641477000
353	1	5.71751663640000	3.81168305970000	39.9678108566000
354	1	5.71130330690000	3.81168328640000	43.7607560824000
355	1	5.71806121520000	7.62336611850000	36.1573809679000
356	1	5.71746260520000	7.62336616140000	39.9677622522000
357	1	5.71801226520000	7.62336573830000	43.7806092604000
358	1	5.71778140250000	11.4350492182000	36.1568641754000
359	1	5.71751662400000	11.4350492530000	39.9678108481000
360	1	5.71130321550000	11.4350502123000	43.7607559649000
361	1	1.91551006790000	1.89247581510000	34.2748413923000
362	1	1.90579632340000	1.90585474130000	38.0622859464000
363	1	1.90553955020000	1.90561095900000	41.8731738849000
364	1	1.91550912340000	5.73088995110000	34.2748391028000
365	1	1.90579634410000	5.71751143260000	38.0622859432000
366	1	1.90553952910000	5.71775518200000	41.8731739157000
367	1	1.91551097980000	9.51584184590000	34.2748437338000
368	1	1.90579633170000	9.52922090340000	38.0622859246000
369	1	1.90553953250000	9.52897715670000	41.8731739404000
370	1	1.91550810600000	13.3542560979000	34.2748363390000
371	1	1.90579632480000	13.3408775852000	38.0622859168000
372	1	1.90553953300000	13.3411213821000	41.8731738693000
373	1	5.70785584750000	1.89247482090000	34.2748433695000
374	1	5.71756983450000	1.90585474570000	38.0622859332000
375	1	5.71782659540000	1.90561095300000	41.8731739286000
376	1	5.70785679890000	5.73089093980000	34.2748410866000
377	1	5.71756981420000	5.71751143070000	38.0622859258000
378	1	5.71782661850000	5.71775518920000	41.8731739624000
379	1	5.70785492920000	9.51584085900000	34.2748457177000
380	1	5.71756982720000	9.52922090600000	38.0622859100000
381	1	5.71782661430000	9.52897714860000	41.8731739827000
382	1	5.70785780880000	13.3542570863000	34.2748383274000
383	1	5.71756983510000	13.3408775813000	38.0622859003000
384	1	5.71782661200000	13.3411213904000	41.8731739103000
385	1	-7.07434322330000e-07	-1.62648297080000e-07	45.6849734785000
386	1	-9.45974589710000e-09	-3.44822340240000e-08	49.4789784254000
387	1	-4.83382555090000e-09	1.41617291420000e-08	53.2894404565000
388	1	-1.84814569850000e-08	3.81168287140000	45.6688002555000
389	1	-1.51174964790000e-08	3.81168308930000	49.4793691556000
390	1	1.62543469690000e-08	3.81168303320000	53.2894064696000
391	1	-7.07681212660000e-07	7.62336700460000	45.6849737516000
392	1	-7.08909780630000e-09	7.62336616710000	49.4789784338000
393	1	-5.92381063540000e-09	7.62336618910000	53.2894403292000
394	1	-2.47491729160000e-08	11.4350488839000	45.6688000501000
395	1	-1.21092422380000e-08	11.4350492461000	49.4793691417000
396	1	2.10560171620000e-08	11.4350492304000	53.2894064266000
397	1	3.81168452440000	-1.90938355870000e-07	45.7696965484000
398	1	3.81168307770000	-1.65614428410000e-08	49.4790412964000
399	1	3.81168306810000	1.77929702030000e-08	53.2905248274000
400	1	3.81168320610000	3.81168205300000	45.6770394514000
401	1	3.81168307710000	3.81168306750000	49.4788928351000
402	1	3.81168306680000	3.81168306450000	53.2901975693000
403	1	3.81168452470000	7.62336959740000	45.7696969322000
404	1	3.81168308060000	7.62336615480000	49.4790413362000
405	1	3.81168306560000	7.62336619460000	53.2905248552000
406	1	3.81168320290000	11.4350463077000	45.6770393702000
407	1	3.81168307750000	11.4350492964000	49.4788928064000
408	1	3.81168306520000	11.4350492109000	53.2901975821000
409	1	9.77038968320000e-09	1.90600696250000	47.5743718748000
410	1	-1.09279467610000e-08	1.90569314540000	51.3845419237000
411	1	-1.46219743230000e-07	1.90860591870000	55.1960060037000
412	1	1.18785492670000e-08	5.71735920850000	47.5743718791000
413	1	-8.47204199200000e-09	5.71767299540000	51.3845418668000
414	1	-1.40340270860000e-07	5.71475995830000	55.1960054858000
415	1	1.13593035010000e-08	9.52937309600000	47.5743718668000
416	1	-1.37257099510000e-08	9.52905932080000	51.3845418691000
417	1	-1.41019200990000e-07	9.53197210330000	55.1960060653000
418	1	1.25849052200000e-08	13.3407253620000	47.5743718604000
419	1	-1.49973651880000e-08	13.3410391901000	51.3845419152000
420	1	-1.43767342160000e-07	13.3381262187000	55.1960053446000
421	1	3.81168306100000	1.90624742980000	47.5735811398000
422	1	3.81168307560000	1.90565130820000	51.3848045489000
423	1	3.81168327750000	1.91539610670000	55.1802975495000
424	1	3.81168306290000	5.71711869810000	47.5735811302000
425	1	3.81168307490000	5.71771480940000	51.3848044928000
426	1	3.81168327750000	5.70796949210000	55.1802952402000
427	1	3.81168305890000	9.52961361700000	47.5735812501000
428	1	3.81168307270000	9.52901750650000	51.3848044835000
429	1	3.81168327590000	9.53876247490000	55.1802990647000
430	1	3.81168306020000	13.3404848704000	47.5735811009000
431	1	3.81168307350000	13.3410809975000	51.3848045361000
432	1	3.81168327950000	13.3313357525000	55.1802938252000
433	1	1.90530491990000	-4.32188129210000e-08	47.5741810204000
434	1	1.90590352280000	-2.02875002810000e-08	51.3845622911000
435	1	1.90535375620000	-4.70504925570000e-07	55.1974104327000
436	1	1.90558473080000	3.81168312570000	47.5736642255000
437	1	1.90584953170000	3.81168305790000	51.3846108568000
438	1	1.91206261970000	3.81168329140000	55.1775577562000
439	1	1.90530493250000	7.62336612090000	47.5741809769000
440	1	1.90590354510000	7.62336616310000	51.3845622226000
441	1	1.90535384590000	7.62336573290000	55.1974093232000
442	1	1.90558473760000	11.4350492192000	47.5736642532000
443	1	1.90584953350000	11.4350492524000	51.3846108448000
444	1	1.91206270740000	11.4350502077000	55.1775576450000
445	1	5.71806122010000	-4.48766373950000e-08	47.5741810068000
446	1	5.71746262800000	-1.97349083860000e-08	51.3845623187000
447	1	5.71801236280000	-4.74126879850000e-07	55.1974103735000
448	1	5.71778140830000	3.81168312860000	47.5736641477000
449	1	5.71751663640000	3.81168305970000	51.3846108566000
450	1	5.71130330690000	3.81168328640000	55.1775560824000
451	1	5.71806121520000	7.62336611850000	47.5741809679000
452	1	5.71746260520000	7.62336616140000	51.3845622522000
453	1	5.71801226520000	7.62336573830000	55.1974092604000
454	1	5.71778140250000	11.4350492182000	47.5736641754000
455	1	5.71751662400000	11.4350492530000	51.3846108481000
456	1	5.71130321550000	11.4350502123000	55.1775559649000
457	1	1.91551006790000	1.89247581510000	45.6916413923000
458	1	1.90579632340000	1.90585474130000	49.4790859464000
459	1	1.90553955020000	1.90561095900000	53.2899738849000
460	1	1.91550912340000	5.73088995110000	45.6916391028000
461	1	1.90579634410000	5.71751143260000	49.4790859432000
462	1	1.90553952910000	5.71775518200000	53.2899739157000
463	1	1.91551097980000	9.51584184590000	45.6916437338000
464	1	1.90579633170000	9.52922090340000	49.4790859246000
465	1	1.90553953250000	9.52897715670000	53.2899739404000
466	1	1.91550810600000	13.3542560979000	45.6916363390000
467	1	1.90579632480000	13.3408775852000	49.4790859168000
468	1	1.90553953300000	13.3411213821000	53.2899738693000
469	1	5.70785584750000	1.89247482090000	45.6916433695000
470	1	5.71756983450000	1.90585474570000	49.4790859332000
471	1	5.71782659540000	1.90561095300000	53.2899739286000
472	1	5.70785679890000	5.73089093980000	45.6916410866000
473	1	5.71756981420000	5.71751143070000	49.4790859258000
474	1	5.71782661850000	5.71775518920000	53.2899739624000
475	1	5.70785492920000	9.51584085900000	45.6916457177000
476	1	5.71756982720000	9.52922090600000	49.4790859100000
477	1	5.71782661430000	9.52897714860000	53.2899739827000
478	1	5.70785780880000	13.3542570863000	45.6916383274000
479	1	5.71756983510000	13.3408775813000	49.4790859003000
480	1	5.71782661200000	13.3411213904000	53.2899739103000
481	1	-7.07434322330000e-07	-1.62648297080000e-07	57.1017734785000
482	1	-9.45974589710000e-09	-3.44822340240000e-08	60.8957784254000
483	1	-4.83382555090000e-09	1.41617291420000e-08	64.7062404565000
484	1	-1.84814569850000e-08	3.81168287140000	57.0856002555000
485	1	-1.51174964790000e-08	3.81168308930000	60.8961691556000
486	1	1.62543469690000e-08	3.81168303320000	64.7062064696000
487	1	-7.07681212660000e-07	7.62336700460000	57.1017737516000
488	1	-7.08909780630000e-09	7.62336616710000	60.8957784338000
489	1	-5.92381063540000e-09	7.62336618910000	64.7062403292000
490	1	-2.47491729160000e-08	11.4350488839000	57.0856000501000
491	1	-1.21092422380000e-08	11.4350492461000	60.8961691417000
492	1	2.10560171620000e-08	11.4350492304000	64.7062064266000
493	1	3.81168452440000	-1.90938355870000e-07	57.1864965484000
494	1	3.81168307770000	-1.65614428410000e-08	60.8958412964000
495	1	3.81168306810000	1.77929702030000e-08	64.7073248274000
496	1	3.81168320610000	3.81168205300000	57.0938394514000
497	1	3.81168307710000	3.81168306750000	60.8956928351000
498	1	3.81168306680000	3.81168306450000	64.7069975693000
499	1	3.81168452470000	7.62336959740000	57.1864969322000
500	1	3.81168308060000	7.62336615480000	60.8958413362000
501	1	3.81168306560000	7.62336619460000	64.7073248552000
502	1	3.81168320290000	11.4350463077000	57.0938393702000
503	1	3.81168307750000	11.4350492964000	60.8956928064000
504	1	3.81168306520000	11.4350492109000	64.7069975821000
505	1	9.77038968320000e-09	1.90600696250000	58.9911718748000
506	1	-1.09279467610000e-08	1.90569314540000	62.8013419237000
507	1	-1.46219743230000e-07	1.90860591870000	66.6128060037000