ITEM: TIMESTEP
0
ITEM: NUMBER OF ATOMS
2496
ITEM: BOX BOUNDS pp pp ss
0.0000000000000000e+00 7.6233661782000004e+00
0.0000000000000000e+00 1.5246732356400001e+01
-1.6228840724189581e-02 1.7656102718282418e+02
ITEM: ATOMS id type xs ys zs
4 1 1 0.25 0.000100971
5 1 1 0.25 0.0216812
16 1 0.5 0.25 0.000147631
17 1 0.5 0.25 0.0216785
25 1 1.28164e-09 0.125011 0.0108927
37 1 0.5 0.125027 0.0108882
52 1 0.249966 0.25 0.0108887
64 1 0.750034 0.25 0.0108887
73 1 0.251268 0.124123 0.000230325
74 1 0.249994 0.125001 0.0216795
85 1 0.748732 0.124123 0.000230337
86 1 0.750006 0.125001 0.0216795
7 1 1 0.5 0.000192565
8 1 1 0.5 0.0216789
19 1 0.5 0.5 0.000672373
20 1 0.5 0.5 0.0216793
28 1 1.55818e-09 0.374989 0.0108927
31 1 1.49006e-09 0.625011 0.0108927
40 1 0.5 0.374973 0.0108882
43 1 0.5 0.625027 0.0108882
55 1 0.24993 0.5 0.0108916
67 1 0.75007 0.5 0.0108916
76 1 0.251268 0.375877 0.000230312
77 1 0.249994 0.374999 0.0216795
79 1 0.251268 0.624123 0.000230339
80 1 0.249994 0.625001 0.0216795
88 1 0.748732 0.375877 0.000230324
89 1 0.750006 0.374999 0.0216795
91 1 0.748732 0.624123 0.00023035
92 1 0.750006 0.625001 0.0216795
1 1 1 1 0.000192563
2 1 1 1 0.0216789
10 1 1 0.75 0.000100969
11 1 1 0.75 0.0216812
13 1 0.5 1 0.000672371
14 1 0.5 1 0.0216793
22 1 0.5 0.75 0.000147631
23 1 0.5 0.75 0.0216785
34 1 1.65083e-09 0.874989 0.0108927
46 1 0.5 0.874973 0.0108882
49 1 0.24993 1 0.0108916
58 1 0.249966 0.75 0.0108887
61 1 0.75007 1 0.0108916
70 1 0.750034 0.75 0.0108887
82 1 0.251268 0.875877 0.000230297
83 1 0.249994 0.874999 0.0216795
94 1 0.748732 0.875877 0.000230308
95 1 0.750006 0.874999 0.0216795
3 1 1 9.28837e-10 0.0432585
6 1 2.13217e-09 0.25 0.0432583
15 1 0.5 1.167e-09 0.0432647
18 1 0.5 0.25 0.0432628
26 1 1 0.12499 0.0324706
38 1 0.5 0.124988 0.0324721
53 1 0.250001 0.25 0.032471
65 1 0.749999 0.25 0.032471
75 1 0.24996 0.124985 0.0432615
87 1 0.75004 0.124985 0.0432615
9 1 1 0.5 0.0432585
21 1 0.5 0.5 0.0432647
29 1 1 0.37501 0.0324706
32 1 1 0.62499 0.0324706
41 1 0.5 0.375012 0.0324721
44 1 0.5 0.624988 0.0324721
56 1 0.250008 0.5 0.0324707
68 1 0.749992 0.5 0.0324707
78 1 0.24996 0.375015 0.0432615
81 1 0.24996 0.624985 0.0432615
90 1 0.75004 0.375015 0.0432615
93 1 0.75004 0.624985 0.0432615
12 1 2.76204e-09 0.75 0.0432583
24 1 0.5 0.75 0.0432628
35 1 1 0.87501 0.0324706
47 1 0.5 0.875012 0.0324721
50 1 0.250008 1 0.0324707
59 1 0.250001 0.75 0.032471
62 1 0.749992 1 0.0324707
71 1 0.749999 0.75 0.032471
84 1 0.24996 0.875015 0.0432615
96 1 0.75004 0.875015 0.0432615
27 1 1 0.125181 0.0540559
39 1 0.5 0.125627 0.0539669
54 1 0.250816 0.25 0.0539514
66 1 0.749184 0.25 0.0539514
100 1 1 0.25 0.0647571
112 1 0.5 0.25 0.0648037
169 1 0.251268 0.124123 0.0648864
181 1 0.748732 0.124123 0.0648865
30 1 1 0.374819 0.0540559
33 1 1 0.625181 0.0540559
42 1 0.5 0.374373 0.0539669
45 1 0.5 0.625627 0.0539669
57 1 0.249936 0.5 0.0540638
69 1 0.750064 0.5 0.0540638
103 1 1 0.5 0.0648487
115 1 0.5 0.5 0.0653285
172 1 0.251268 0.375877 0.0648864
175 1 0.251268 0.624123 0.0648865
184 1 0.748732 0.375877 0.0648864
187 1 0.748732 0.624123 0.0648865
36 1 1 0.874819 0.0540559
48 1 0.5 0.874373 0.0539669
51 1 0.249936 1 0.0540638
60 1 0.250816 0.75 0.0539514
63 1 0.750064 1 0.0540638
72 1 0.749184 0.75 0.0539514
97 1 1 1 0.0648487
106 1 1 0.75 0.0647571
109 1 0.5 1 0.0653285
118 1 0.5 0.75 0.0648037
178 1 0.251268 0.875877 0.0648864
190 1 0.748732 0.875877 0.0648864
101 1 1 0.25 0.0863373
113 1 0.5 0.25 0.0863346
121 1 1.28164e-09 0.125011 0.0755488
133 1 0.5 0.125027 0.0755443
148 1 0.249966 0.25 0.0755448
160 1 0.750034 0.25 0.0755448
170 1 0.249994 0.125001 0.0863357
182 1 0.750006 0.125001 0.0863357
104 1 1 0.5 0.0863351
116 1 0.5 0.5 0.0863354
124 1 1.55818e-09 0.374989 0.0755488
127 1 1.49006e-09 0.625011 0.0755488
136 1 0.5 0.374973 0.0755443
139 1 0.5 0.625027 0.0755443
151 1 0.24993 0.5 0.0755477
163 1 0.75007 0.5 0.0755477
173 1 0.249994 0.374999 0.0863357
176 1 0.249994 0.625001 0.0863357
185 1 0.750006 0.374999 0.0863357
188 1 0.750006 0.625001 0.0863357
98 1 1 1 0.0863351
107 1 1 0.75 0.0863373
110 1 0.5 1 0.0863354
119 1 0.5 0.75 0.0863346
130 1 1.65083e-09 0.874989 0.0755488
142 1 0.5 0.874973 0.0755443
145 1 0.24993 1 0.0755477
154 1 0.249966 0.75 0.0755448
157 1 0.75007 1 0.0755477
166 1 0.750034 0.75 0.0755448
179 1 0.249994 0.874999 0.0863357
191 1 0.750006 0.874999 0.0863357
99 1 1 9.28837e-10 0.107915
102 1 2.13217e-09 0.25 0.107914
111 1 0.5 1.167e-09 0.107921
114 1 0.5 0.25 0.107919
122 1 1 0.12499 0.0971267
134 1 0.5 0.124988 0.0971282
149 1 0.250001 0.25 0.0971271
161 1 0.749999 0.25 0.0971271
171 1 0.24996 0.124985 0.107918
183 1 0.75004 0.124985 0.107918
105 1 1 0.5 0.107915
117 1 0.5 0.5 0.107921
125 1 1 0.37501 0.0971267
128 1 1 0.62499 0.0971267
137 1 0.5 0.375012 0.0971282
140 1 0.5 0.624988 0.0971282
152 1 0.250008 0.5 0.0971268
164 1 0.749992 0.5 0.0971268
174 1 0.24996 0.375015 0.107918
177 1 0.24996 0.624985 0.107918
186 1 0.75004 0.375015 0.107918
189 1 0.75004 0.624985 0.107918
108 1 2.76204e-09 0.75 0.107914
120 1 0.5 0.75 0.107919
131 1 1 0.87501 0.0971267
143 1 0.5 0.875012 0.0971282
146 1 0.250008 1 0.0971268
155 1 0.250001 0.75 0.0971271
158 1 0.749992 1 0.0971268
167 1 0.749999 0.75 0.0971271
180 1 0.24996 0.875015 0.107918
192 1 0.75004 0.875015 0.107918
123 1 1 0.125181 0.118712
135 1 0.5 0.125627 0.118623
150 1 0.250816 0.25 0.118607
162 1 0.749184 0.25 0.118607
196 1 1 0.25 0.129413
208 1 0.5 0.25 0.12946
265 1 0.251268 0.124123 0.129543
277 1 0.748732 0.124123 0.129543
126 1 1 0.374819 0.118712
129 1 1 0.625181 0.118712
138 1 0.5 0.374373 0.118623
141 1 0.5 0.625627 0.118623
153 1 0.249936 0.5 0.11872
165 1 0.750064 0.5 0.11872
199 1 1 0.5 0.129505
211 1 0.5 0.5 0.129985
268 1 0.251268 0.375877 0.129543
271 1 0.251268 0.624123 0.129543
280 1 0.748732 0.375877 0.129543
283 1 0.748732 0.624123 0.129543
132 1 1 0.874819 0.118712
144 1 0.5 0.874373 0.118623
147 1 0.249936 1 0.11872
156 1 0.250816 0.75 0.118607
159 1 0.750064 1 0.11872
168 1 0.749184 0.75 0.118607
193 1 1 1 0.129505
202 1 1 0.75 0.129413
205 1 0.5 1 0.129985
214 1 0.5 0.75 0.12946
274 1 0.251268 0.875877 0.129543
286 1 0.748732 0.875877 0.129543
197 1 1 0.25 0.150993
209 1 0.5 0.25 0.150991
217 1 1.28164e-09 0.125011 0.140205
229 1 0.5 0.125027 0.1402
244 1 0.249966 0.25 0.140201
256 1 0.750034 0.25 0.140201
266 1 0.249994 0.125001 0.150992
278 1 0.750006 0.125001 0.150992
200 1 1 0.5 0.150991
212 1 0.5 0.5 0.150992
220 1 1.55818e-09 0.374989 0.140205
223 1 1.49006e-09 0.625011 0.140205
232 1 0.5 0.374973 0.1402
235 1 0.5 0.625027 0.1402
247 1 0.24993 0.5 0.140204
259 1 0.75007 0.5 0.140204
269 1 0.249994 0.374999 0.150992
272 1 0.249994 0.625001 0.150992
281 1 0.750006 0.374999 0.150992
284 1 0.750006 0.625001 0.150992
194 1 1 1 0.150991
203 1 1 0.75 0.150993
206 1 0.5 1 0.150992
215 1 0.5 0.75 0.150991
226 1 1.65083e-09 0.874989 0.140205
238 1 0.5 0.874973 0.1402
241 1 0.24993 1 0.140204
250 1 0.249966 0.75 0.140201
253 1 0.75007 1 0.140204
262 1 0.750034 0.75 0.140201
275 1 0.249994 0.874999 0.150992
287 1 0.750006 0.874999 0.150992
195 1 1 9.28837e-10 0.172571
198 1 2.13217e-09 0.25 0.172571
207 1 0.5 1.167e-09 0.172577
210 1 0.5 0.25 0.172575
218 1 1 0.12499 0.161783
230 1 0.5 0.124988 0.161784
245 1 0.250001 0.25 0.161783
257 1 0.749999 0.25 0.161783
267 1 0.24996 0.124985 0.172574
279 1 0.75004 0.124985 0.172574
201 1 1 0.5 0.172571
213 1 0.5 0.5 0.172577
221 1 1 0.37501 0.161783
224 1 1 0.62499 0.161783
233 1 0.5 0.375012 0.161784
236 1 0.5 0.624988 0.161784
248 1 0.250008 0.5 0.161783
260 1 0.749992 0.5 0.161783
270 1 0.24996 0.375015 0.172574
273 1 0.24996 0.624985 0.172574
282 1 0.75004 0.375015 0.172574
285 1 0.75004 0.624985 0.172574
204 1 2.76204e-09 0.75 0.172571
216 1 0.5 0.75 0.172575
227 1 1 0.87501 0.161783
239 1 0.5 0.875012 0.161784
242 1 0.250008 1 0.161783
251 1 0.250001 0.75 0.161783
254 1 0.749992 1 0.161783
263 1 0.749999 0.75 0.161783
276 1 0.24996 0.875015 0.172574
288 1 0.75004 0.875015 0.172574
219 1 1 0.125181 0.183368
231 1 0.5 0.125627 0.183279
246 1 0.250816 0.25 0.183264
258 1 0.749184 0.25 0.183264
292 1 1 0.25 0.194069
304 1 0.5 0.25 0.194116
361 1 0.251268 0.124123 0.194199
373 1 0.748732 0.124123 0.194199
222 1 1 0.374819 0.183368
225 1 1 0.625181 0.183368
234 1 0.5 0.374373 0.183279
237 1 0.5 0.625627 0.183279
249 1 0.249936 0.5 0.183376
261 1 0.750064 0.5 0.183376
295 1 1 0.5 0.194161
307 1 0.5 0.5 0.194641
364 1 0.251268 0.375877 0.194199
367 1 0.251268 0.624123 0.194199
376 1 0.748732 0.375877 0.194199
379 1 0.748732 0.624123 0.194199
228 1 1 0.874819 0.183368
240 1 0.5 0.874373 0.183279
243 1 0.249936 1 0.183376
252 1 0.250816 0.75 0.183264
255 1 0.750064 1 0.183376
264 1 0.749184 0.75 0.183264
289 1 1 1 0.194161
298 1 1 0.75 0.194069
301 1 0.5 1 0.194641
310 1 0.5 0.75 0.194116
370 1 0.251268 0.875877 0.194199
382 1 0.748732 0.875877 0.194199
293 1 1 0.25 0.21565
305 1 0.5 0.25 0.215647
313 1 1.28164e-09 0.125011 0.204861
314 1 1 0.12499 0.226439
325 1 0.5 0.125027 0.204857
326 1 0.5 0.124988 0.22644
340 1 0.249966 0.25 0.204857
341 1 0.250001 0.25 0.226439
352 1 0.750034 0.25 0.204857
353 1 0.749999 0.25 0.226439
362 1 0.249994 0.125001 0.215648
374 1 0.750006 0.125001 0.215648
296 1 1 0.5 0.215647
308 1 0.5 0.5 0.215648
316 1 1.55818e-09 0.374989 0.204861
317 1 1 0.37501 0.226439
319 1 1.49006e-09 0.625011 0.204861
320 1 1 0.62499 0.226439
328 1 0.5 0.374973 0.204857
329 1 0.5 0.375012 0.22644
331 1 0.5 0.625027 0.204857
332 1 0.5 0.624988 0.22644
343 1 0.24993 0.5 0.20486
344 1 0.250008 0.5 0.226439
355 1 0.75007 0.5 0.20486
356 1 0.749992 0.5 0.226439
365 1 0.249994 0.374999 0.215648
368 1 0.249994 0.625001 0.215648
377 1 0.750006 0.374999 0.215648
380 1 0.750006 0.625001 0.215648
290 1 1 1 0.215647
299 1 1 0.75 0.21565
302 1 0.5 1 0.215648
311 1 0.5 0.75 0.215647
322 1 1.65083e-09 0.874989 0.204861
323 1 1 0.87501 0.226439
334 1 0.5 0.874973 0.204857
335 1 0.5 0.875012 0.22644
337 1 0.24993 1 0.20486
338 1 0.250008 1 0.226439
346 1 0.249966 0.75 0.204857
347 1 0.250001 0.75 0.226439
349 1 0.75007 1 0.20486
350 1 0.749992 1 0.226439
358 1 0.750034 0.75 0.204857
359 1 0.749999 0.75 0.226439
371 1 0.249994 0.874999 0.215648
383 1 0.750006 0.874999 0.215648
291 1 1 9.28837e-10 0.237227
294 1 2.13217e-09 0.25 0.237227
303 1 0.5 1.167e-09 0.237233
306 1 0.5 0.25 0.237231
315 1 1 0.125181 0.248024
327 1 0.5 0.125627 0.247935
342 1 0.250816 0.25 0.24792
354 1 0.749184 0.25 0.24792
363 1 0.24996 0.124985 0.23723
375 1 0.75004 0.124985 0.23723
297 1 1 0.5 0.237227
309 1 0.5 0.5 0.237233
318 1 1 0.374819 0.248024
321 1 1 0.625181 0.248024
330 1 0.5 0.374373 0.247935
333 1 0.5 0.625627 0.247935
345 1 0.249936 0.5 0.248032
357 1 0.750064 0.5 0.248032
366 1 0.24996 0.375015 0.23723
369 1 0.24996 0.624985 0.23723
378 1 0.75004 0.375015 0.23723
381 1 0.75004 0.624985 0.23723
300 1 2.76204e-09 0.75 0.237227
312 1 0.5 0.75 0.237231
324 1 1 0.874819 0.248024
336 1 0.5 0.874373 0.247935
339 1 0.249936 1 0.248032
348 1 0.250816 0.75 0.24792
351 1 0.750064 1 0.248032
360 1 0.749184 0.75 0.24792
372 1 0.24996 0.875015 0.23723
384 1 0.75004 0.875015 0.23723
388 1 1 0.25 0.258725
400 1 0.5 0.25 0.258772
409 1 1.28164e-09 0.125011 0.269517
421 1 0.5 0.125027 0.269513
436 1 0.249966 0.25 0.269513
448 1 0.750034 0.25 0.269513
457 1 0.251268 0.124123 0.258855
469 1 0.748732 0.124123 0.258855
391 1 1 0.5 0.258817
403 1 0.5 0.5 0.259297
412 1 1.55818e-09 0.374989 0.269517
415 1 1.49006e-09 0.625011 0.269517
424 1 0.5 0.374973 0.269513
427 1 0.5 0.625027 0.269513
439 1 0.24993 0.5 0.269516
451 1 0.75007 0.5 0.269516
460 1 0.251268 0.375877 0.258855
463 1 0.251268 0.624123 0.258855
472 1 0.748732 0.375877 0.258855
475 1 0.748732 0.624123 0.258855
385 1 1 1 0.258817
394 1 1 0.75 0.258725
397 1 0.5 1 0.259297
406 1 0.5 0.75 0.258772
418 1 1.65083e-09 0.874989 0.269517
430 1 0.5 0.874973 0.269513
433 1 0.24993 1 0.269516
442 1 0.249966 0.75 0.269513
445 1 0.75007 1 0.269516
454 1 0.750034 0.75 0.269513
466 1 0.251268 0.875877 0.258855
478 1 0.748732 0.875877 0.258855
389 1 1 0.25 0.280306
401 1 0.5 0.25 0.280303
410 1 1 0.12499 0.291095
422 1 0.5 0.124988 0.291097
437 1 0.250001 0.25 0.291095
449 1 0.749999 0.25 0.291095
458 1 0.249994 0.125001 0.280304
470 1 0.750006 0.125001 0.280304
392 1 1 0.5 0.280303
404 1 0.5 0.5 0.280304
413 1 1 0.37501 0.291095
416 1 1 0.62499 0.291095
425 1 0.5 0.375012 0.291097
428 1 0.5 0.624988 0.291097
440 1 0.250008 0.5 0.291095
452 1 0.749992 0.5 0.291095
461 1 0.249994 0.374999 0.280304
464 1 0.249994 0.625001 0.280304
473 1 0.750006 0.374999 0.280304
476 1 0.750006 0.625001 0.280304
386 1 1 1 0.280303
395 1 1 0.75 0.280306
398 1 0.5 1 0.280304
407 1 0.5 0.75 0.280303
419 1 1 0.87501 0.291095
431 1 0.5 0.875012 0.291097
434 1 0.250008 1 0.291095
443 1 0.250001 0.75 0.291095
446 1 0.749992 1 0.291095
455 1 0.749999 0.75 0.291095
467 1 0.249994 0.874999 0.280304
479 1 0.750006 0.874999 0.280304
387 1 1 9.28837e-10 0.301883
390 1 2.13217e-09 0.25 0.301883
399 1 0.5 1.167e-09 0.301889
402 1 0.5 0.25 0.301887
411 1 1 0.125181 0.31268
423 1 0.5 0.125627 0.312591
438 1 0.250816 0.25 0.312576
450 1 0.749184 0.25 0.312576
459 1 0.24996 0.124985 0.301886
471 1 0.75004 0.124985 0.301886
393 1 1 0.5 0.301883
405 1 0.5 0.5 0.301889
414 1 1 0.374819 0.31268
417 1 1 0.625181 0.31268
426 1 0.5 0.374373 0.312591
429 1 0.5 0.625627 0.312591
441 1 0.249936 0.5 0.312688
453 1 0.750064 0.5 0.312688
462 1 0.24996 0.375015 0.301886
465 1 0.24996 0.624985 0.301886
474 1 0.75004 0.375015 0.301886
477 1 0.75004 0.624985 0.301886
396 1 2.76204e-09 0.75 0.301883
408 1 0.5 0.75 0.301887
420 1 1 0.874819 0.31268
432 1 0.5 0.874373 0.312591
435 1 0.249936 1 0.312688
444 1 0.250816 0.75 0.312576
447 1 0.750064 1 0.312688
456 1 0.749184 0.75 0.312576
468 1 0.24996 0.875015 0.301886
480 1 0.75004 0.875015 0.301886
484 1 1 0.25 0.323382
496 1 0.5 0.25 0.323428
505 1 1.28164e-09 0.125011 0.334173
517 1 0.5 0.125027 0.334169
532 1 0.249966 0.25 0.334169
544 1 0.750034 0.25 0.334169
553 1 0.251268 0.124123 0.323511
565 1 0.748732 0.124123 0.323511
487 1 1 0.5 0.323473
499 1 0.5 0.5 0.323953
508 1 1.55818e-09 0.374989 0.334173
511 1 1.49006e-09 0.625011 0.334173
520 1 0.5 0.374973 0.334169
523 1 0.5 0.625027 0.334169
535 1 0.24993 0.5 0.334172
547 1 0.75007 0.5 0.334172
556 1 0.251268 0.375877 0.323511
559 1 0.251268 0.624123 0.323511
568 1 0.748732 0.375877 0.323511
571 1 0.748732 0.624123 0.323511
481 1 1 1 0.323473
490 1 1 0.75 0.323382
493 1 0.5 1 0.323953
502 1 0.5 0.75 0.323428
514 1 1.65083e-09 0.874989 0.334173
526 1 0.5 0.874973 0.334169
529 1 0.24993 1 0.334172
538 1 0.249966 0.75 0.334169
541 1 0.75007 1 0.334172
550 1 0.750034 0.75 0.334169
562 1 0.251268 0.875877 0.323511
574 1 0.748732 0.875877 0.323511
485 1 1 0.25 0.344962
497 1 0.5 0.25 0.344959
506 1 1 0.12499 0.355751
518 1 0.5 0.124988 0.355753
533 1 0.250001 0.25 0.355752
545 1 0.749999 0.25 0.355752
554 1 0.249994 0.125001 0.34496
566 1 0.750006 0.125001 0.34496
488 1 1 0.5 0.34496
500 1 0.5 0.5 0.34496
509 1 1 0.37501 0.355751
512 1 1 0.62499 0.355751
521 1 0.5 0.375012 0.355753
524 1 0.5 0.624988 0.355753
536 1 0.250008 0.5 0.355751
548 1 0.749992 0.5 0.355751
557 1 0.249994 0.374999 0.34496
560 1 0.249994 0.625001 0.34496
569 1 0.750006 0.374999 0.34496
572 1 0.750006 0.625001 0.34496
482 1 1 1 0.34496
491 1 1 0.75 0.344962
494 1 0.5 1 0.34496
503 1 0.5 0.75 0.344959
515 1 1 0.87501 0.355751
527 1 0.5 0.875012 0.355753
530 1 0.250008 1 0.355751
539 1 0.250001 0.75 0.355752
542 1 0.749992 1 0.355751
551 1 0.749999 0.75 0.355752
563 1 0.249994 0.874999 0.34496
575 1 0.750006 0.874999 0.34496
483 1 1 9.28837e-10 0.366539
486 1 2.13217e-09 0.25 0.366539
495 1 0.5 1.167e-09 0.366545
498 1 0.5 0.25 0.366543
507 1 1 0.125181 0.377336
519 1 0.5 0.125627 0.377247
534 1 0.250816 0.25 0.377232
546 1 0.749184 0.25 0.377232
555 1 0.24996 0.124985 0.366542
567 1 0.75004 0.124985 0.366542
489 1 1 0.5 0.366539
501 1 0.5 0.5 0.366545
510 1 1 0.374819 0.377336
513 1 1 0.625181 0.377336
522 1 0.5 0.374373 0.377247
525 1 0.5 0.625627 0.377247
537 1 0.249936 0.5 0.377344
549 1 0.750064 0.5 0.377344
558 1 0.24996 0.375015 0.366542
561 1 0.24996 0.624985 0.366542
570 1 0.75004 0.375015 0.366542
573 1 0.75004 0.624985 0.366542
492 1 2.76204e-09 0.75 0.366539
504 1 0.5 0.75 0.366543
516 1 1 0.874819 0.377336
528 1 0.5 0.874373 0.377247
531 1 0.249936 1 0.377344
540 1 0.250816 0.75 0.377232
543 1 0.750064 1 0.377344
552 1 0.749184 0.75 0.377232
564 1 0.24996 0.875015 0.366542
576 1 0.75004 0.875015 0.366542
580 1 1 0.25 0.388038
592 1 0.5 0.25 0.388084
601 1 1.28164e-09 0.125011 0.398829
613 1 0.5 0.125027 0.398825
628 1 0.249966 0.25 0.398825
640 1 0.750034 0.25 0.398825
649 1 0.251268 0.124123 0.388167
661 1 0.748732 0.124123 0.388167
583 1 1 0.5 0.388129
595 1 0.5 0.5 0.388609
604 1 1.55818e-09 0.374989 0.398829
607 1 1.49006e-09 0.625011 0.398829
616 1 0.5 0.374973 0.398825
619 1 0.5 0.625027 0.398825
631 1 0.24993 0.5 0.398828
643 1 0.75007 0.5 0.398828
652 1 0.251268 0.375877 0.388167
655 1 0.251268 0.624123 0.388167
664 1 0.748732 0.375877 0.388167
667 1 0.748732 0.624123 0.388167
577 1 1 1 0.388129
586 1 1 0.75 0.388038
589 1 0.5 1 0.388609
598 1 0.5 0.75 0.388084
610 1 1.65083e-09 0.874989 0.398829
622 1 0.5 0.874973 0.398825
625 1 0.24993 1 0.398828
634 1 0.249966 0.75 0.398825
637 1 0.75007 1 0.398828
646 1 0.750034 0.75 0.398825
658 1 0.251268 0.875877 0.388167
670 1 0.748732 0.875877 0.388167
579 1 1 9.28837e-10 0.431195
581 1 1 0.25 0.409618
582 1 2.13217e-09 0.25 0.431195
591 1 0.5 1.167e-09 0.431201
593 1 0.5 0.25 0.409615
594 1 0.5 0.25 0.4312
602 1 1 0.12499 0.420407
614 1 0.5 0.124988 0.420409
629 1 0.250001 0.25 0.420408
641 1 0.749999 0.25 0.420408
650 1 0.249994 0.125001 0.409616
651 1 0.24996 0.124985 0.431198
662 1 0.750006 0.125001 0.409616
663 1 0.75004 0.124985 0.431198
584 1 1 0.5 0.409616
585 1 1 0.5 0.431195
596 1 0.5 0.5 0.409616
597 1 0.5 0.5 0.431201
605 1 1 0.37501 0.420407
608 1 1 0.62499 0.420407
617 1 0.5 0.375012 0.420409
620 1 0.5 0.624988 0.420409
632 1 0.250008 0.5 0.420407
644 1 0.749992 0.5 0.420407
653 1 0.249994 0.374999 0.409616
654 1 0.24996 0.375015 0.431198
656 1 0.249994 0.625001 0.409616
657 1 0.24996 0.624985 0.431198
665 1 0.750006 0.374999 0.409616
666 1 0.75004 0.375015 0.431198
668 1 0.750006 0.625001 0.409616
669 1 0.75004 0.624985 0.431198
578 1 1 1 0.409616
587 1 1 0.75 0.409618
588 1 2.76204e-09 0.75 0.431195
590 1 0.5 1 0.409616
599 1 0.5 0.75 0.409615
600 1 0.5 0.75 0.4312
611 1 1 0.87501 0.420407
623 1 0.5 0.875012 0.420409
626 1 0.250008 1 0.420407
635 1 0.250001 0.75 0.420408
638 1 0.749992 1 0.420407
647 1 0.749999 0.75 0.420408
659 1 0.249994 0.874999 0.409616
660 1 0.24996 0.875015 0.431198
671 1 0.750006 0.874999 0.409616
672 1 0.75004 0.875015 0.431198
603 1 1 0.125181 0.441993
615 1 0.5 0.125627 0.441904
630 1 0.250816 0.25 0.441888
642 1 0.749184 0.25 0.441888
676 1 1 0.25 0.452694
688 1 0.5 0.25 0.45274
745 1 0.251268 0.124123 0.452823
757 1 0.748732 0.124123 0.452823
606 1 1 0.374819 0.441993
609 1 1 0.625181 0.441993
618 1 0.5 0.374373 0.441904
621 1 0.5 0.625627 0.441904
633 1 0.249936 0.5 0.442001
645 1 0.750064 0.5 0.442001
679 1 1 0.5 0.452785
691 1 0.5 0.5 0.453265
748 1 0.251268 0.375877 0.452823
751 1 0.251268 0.624123 0.452823
760 1 0.748732 0.375877 0.452823
763 1 0.748732 0.624123 0.452823
612 1 1 0.874819 0.441993
624 1 0.5 0.874373 0.441904
627 1 0.249936 1 0.442001
636 1 0.250816 0.75 0.441888
639 1 0.750064 1 0.442001
648 1 0.749184 0.75 0.441888
673 1 1 1 0.452785
682 1 1 0.75 0.452694
685 1 0.5 1 0.453265
694 1 0.5 0.75 0.45274
754 1 0.251268 0.875877 0.452823
766 1 0.748732 0.875877 0.452823
677 1 1 0.25 0.474274
689 1 0.5 0.25 0.474271
697 1 1.28164e-09 0.125011 0.463486
709 1 0.5 0.125027 0.463481
724 1 0.249966 0.25 0.463482
736 1 0.750034 0.25 0.463482
746 1 0.249994 0.125001 0.474272
758 1 0.750006 0.125001 0.474272
680 1 1 0.5 0.474272
692 1 0.5 0.5 0.474272
700 1 1.55818e-09 0.374989 0.463486
703 1 1.49006e-09 0.625011 0.463486
712 1 0.5 0.374973 0.463481
715 1 0.5 0.625027 0.463481
727 1 0.24993 0.5 0.463484
739 1 0.75007 0.5 0.463484
749 1 0.249994 0.374999 0.474272
752 1 0.249994 0.625001 0.474272
761 1 0.750006 0.374999 0.474272
764 1 0.750006 0.625001 0.474272
674 1 1 1 0.474272
683 1 1 0.75 0.474274
686 1 0.5 1 0.474272
695 1 0.5 0.75 0.474271
706 1 1.65083e-09 0.874989 0.463486
718 1 0.5 0.874973 0.463481
721 1 0.24993 1 0.463484
730 1 0.249966 0.75 0.463482
733 1 0.75007 1 0.463484
742 1 0.750034 0.75 0.463482
755 1 0.249994 0.874999 0.474272
767 1 0.750006 0.874999 0.474272
675 1 1 9.28837e-10 0.495851
678 1 2.13217e-09 0.25 0.495851
687 1 0.5 1.167e-09 0.495857
690 1 0.5 0.25 0.495856
698 1 1 0.12499 0.485063
710 1 0.5 0.124988 0.485065
725 1 0.250001 0.25 0.485064
737 1 0.749999 0.25 0.485064
747 1 0.24996 0.124985 0.495854
759 1 0.75004 0.124985 0.495854
681 1 1 0.5 0.495851
693 1 0.5 0.5 0.495857
701 1 1 0.37501 0.485063
704 1 1 0.62499 0.485063
713 1 0.5 0.375012 0.485065
716 1 0.5 0.624988 0.485065
728 1 0.250008 0.5 0.485064
740 1 0.749992 0.5 0.485064
750 1 0.24996 0.375015 0.495854
753 1 0.24996 0.624985 0.495854
762 1 0.75004 0.375015 0.495854
765 1 0.75004 0.624985 0.495854
684 1 2.76204e-09 0.75 0.495851
696 1 0.5 0.75 0.495856
707 1 1 0.87501 0.485063
719 1 0.5 0.875012 0.485065
722 1 0.250008 1 0.485064
731 1 0.250001 0.75 0.485064
734 1 0.749992 1 0.485064
743 1 0.749999 0.75 0.485064
756 1 0.24996 0.875015 0.495854
768 1 0.75004 0.875015 0.495854
699 1 1 0.125181 0.506649
711 1 0.5 0.125627 0.50656
726 1 0.250816 0.25 0.506544
738 1 0.749184 0.25 0.506544
769 2 1 0.0831498 0.522414
772 2 0.166634 0.0833581 0.517356
773 2 0.333345 0.0834061 0.522405
776 2 0.499997 0.0827015 0.517463
777 2 0.66665 0.0834061 0.522405
780 2 0.833361 0.0833581 0.517356
781 2 1 0.249999 0.522395
784 2 0.165807 0.249999 0.517464
785 2 0.333325 0.249999 0.522416
788 2 0.499997 0.249999 0.517341
789 2 0.66667 0.249999 0.522416
792 2 0.834187 0.249999 0.517464
702 1 1 0.374819 0.506649
705 1 1 0.625181 0.506649
714 1 0.5 0.374373 0.50656
717 1 0.5 0.625627 0.50656
729 1 0.249936 0.5 0.506657
741 1 0.750064 0.5 0.506657
793 2 1 0.416847 0.522414
796 2 0.166634 0.416639 0.517356
797 2 0.333345 0.416591 0.522405
800 2 0.499997 0.417296 0.517463
801 2 0.66665 0.416591 0.522405
804 2 0.833361 0.416639 0.517356
805 2 1 0.583147 0.522414
808 2 0.166634 0.583355 0.517356
809 2 0.333345 0.583403 0.522405
812 2 0.499997 0.582699 0.517463
813 2 0.66665 0.583403 0.522405
816 2 0.833361 0.583355 0.517356
708 1 1 0.874819 0.506649
720 1 0.5 0.874373 0.50656
723 1 0.249936 1 0.506657
732 1 0.250816 0.75 0.506544
735 1 0.750064 1 0.506657
744 1 0.749184 0.75 0.506544
817 2 1 0.749996 0.522395
820 2 0.165807 0.749996 0.517464
821 2 0.333325 0.749996 0.522416
824 2 0.499997 0.749996 0.517341
825 2 0.66667 0.749996 0.522416
828 2 0.834187 0.749996 0.517464
829 2 1 0.916845 0.522414
832 2 0.166634 0.916636 0.517356
833 2 0.333345 0.916589 0.522405
836 2 0.499997 0.917293 0.517463
837 2 0.66665 0.916589 0.522405
840 2 0.833361 0.916636 0.517356
782 2 1 0.166661 0.527504
783 2 0.166678 0.166671 0.532589
786 2 0.333355 0.166669 0.527508
787 2 0.499997 0.166673 0.53259
790 2 0.66664 0.166669 0.527508
791 2 0.833316 0.166671 0.532589
795 2 0.166678 0.333326 0.532589
798 2 0.333355 0.333328 0.527508
799 2 0.499997 0.333324 0.53259
802 2 0.66664 0.333328 0.527508
803 2 0.833316 0.333326 0.532589
841 2 1 0.0833296 0.542765
844 2 0.166674 0.0833281 0.537679
845 2 0.333326 0.0833315 0.542765
848 2 0.499997 0.0833324 0.537679
849 2 0.666669 0.0833315 0.542765
852 2 0.833321 0.0833281 0.537679
853 2 1 0.249999 0.542766
856 2 0.166663 0.249999 0.537679
857 2 0.333332 0.249999 0.542765
860 2 0.499997 0.249999 0.537679
861 2 0.666663 0.249999 0.542765
864 2 0.833332 0.249999 0.537679
794 2 1 0.333336 0.527504
806 2 1 0.499997 0.527513
807 2 0.166646 0.499997 0.53259
810 2 0.333262 0.499997 0.527505
811 2 0.499997 0.499997 0.532589
814 2 0.666733 0.499997 0.527505
815 2 0.833348 0.499997 0.53259
818 2 1 0.666658 0.527504
822 2 0.333355 0.666666 0.527508
826 2 0.66664 0.666666 0.527508
865 2 1 0.416668 0.542765
868 2 0.166674 0.416669 0.537679
869 2 0.333326 0.416666 0.542765
872 2 0.499997 0.416665 0.537679
873 2 0.666669 0.416666 0.542765
876 2 0.833321 0.416669 0.537679
877 2 1 0.583327 0.542765
880 2 0.166674 0.583325 0.537679
881 2 0.333326 0.583329 0.542765
884 2 0.499997 0.58333 0.537679
885 2 0.666669 0.583329 0.542765
888 2 0.833321 0.583325 0.537679
770 2 1 1 0.527513
771 2 0.166646 1 0.53259
774 2 0.333262 1 0.527505
775 2 0.499997 1 0.532589
778 2 0.666733 1 0.527505
779 2 0.833348 1 0.53259
819 2 0.166678 0.666669 0.532589
823 2 0.499997 0.66667 0.53259
827 2 0.833316 0.666669 0.532589
830 2 1 0.833334 0.527504
831 2 0.166678 0.833323 0.532589
834 2 0.333355 0.833326 0.527508
835 2 0.499997 0.833322 0.53259
838 2 0.66664 0.833326 0.527508
839 2 0.833316 0.833323 0.532589
889 2 1 0.749996 0.542766
892 2 0.166663 0.749996 0.537679
893 2 0.333332 0.749996 0.542765
896 2 0.499997 0.749996 0.537679
897 2 0.666663 0.749996 0.542765
900 2 0.833332 0.749996 0.537679
901 2 1 0.916665 0.542765
904 2 0.166674 0.916667 0.537679
905 2 0.333326 0.916663 0.542765
908 2 0.499997 0.916662 0.537679
909 2 0.666669 0.916663 0.542765
912 2 0.833321 0.916667 0.537679
854 2 1 0.166665 0.547855
855 2 0.166668 0.166669 0.552941
858 2 0.333331 0.166668 0.547855
859 2 0.499997 0.166674 0.552941
862 2 0.666663 0.166668 0.547855
863 2 0.833327 0.166669 0.552941
866 2 1 0.333332 0.547855
867 2 0.166668 0.333329 0.552941
870 2 0.333331 0.333329 0.547855
871 2 0.499997 0.333323 0.552941
874 2 0.666663 0.333329 0.547855
875 2 0.833327 0.333329 0.552941
913 2 1 0.0833337 0.56311
916 2 0.166659 0.0833235 0.558031
917 2 0.333307 0.0833313 0.563114
920 2 0.499997 0.0833335 0.558031
921 2 0.666688 0.0833313 0.563114
924 2 0.833335 0.0833235 0.558031
925 2 1 0.249999 0.563115
928 2 0.16668 0.249999 0.558031
929 2 0.333368 0.249999 0.563108
932 2 0.499997 0.249999 0.55803
933 2 0.666626 0.249999 0.563108
936 2 0.833314 0.249999 0.558031
878 2 1 0.499997 0.547855
879 2 0.166675 0.499997 0.55294
882 2 0.333323 0.499997 0.547855
883 2 0.499997 0.499997 0.552941
886 2 0.666671 0.499997 0.547855
887 2 0.83332 0.499997 0.55294
890 2 1 0.666662 0.547855
891 2 0.166668 0.666666 0.552941
894 2 0.333331 0.666666 0.547855
898 2 0.666663 0.666666 0.547855
899 2 0.833327 0.666666 0.552941
937 2 1 0.416664 0.56311
940 2 0.166659 0.416674 0.558031
941 2 0.333307 0.416666 0.563114
944 2 0.499997 0.416664 0.558031
945 2 0.666688 0.416666 0.563114
948 2 0.833335 0.416674 0.558031
949 2 1 0.583331 0.56311
950 2 1 0.499997 0.568178
952 2 0.166659 0.583321 0.558031
953 2 0.333307 0.583329 0.563114
956 2 0.499997 0.583331 0.558031
957 2 0.666688 0.583329 0.563114
960 2 0.833335 0.583321 0.558031
842 2 1 1 0.547855
843 2 0.166675 1 0.55294
846 2 0.333323 1 0.547855
847 2 0.499997 1 0.552941
850 2 0.666671 1 0.547855
851 2 0.83332 1 0.55294
895 2 0.499997 0.666671 0.552941
902 2 1 0.83333 0.547855
903 2 0.166668 0.833326 0.552941
906 2 0.333331 0.833326 0.547855
907 2 0.499997 0.833321 0.552941
910 2 0.666663 0.833326 0.547855
911 2 0.833327 0.833326 0.552941
914 2 1 1 0.568178
961 2 1 0.749996 0.563115
964 2 0.16668 0.749996 0.558031
965 2 0.333368 0.749996 0.563108
968 2 0.499997 0.749996 0.55803
969 2 0.666626 0.749996 0.563108
972 2 0.833314 0.749996 0.558031
973 2 1 0.916661 0.56311
976 2 0.166659 0.916671 0.558031
977 2 0.333307 0.916663 0.563114
980 2 0.499997 0.916661 0.558031
981 2 0.666688 0.916663 0.563114
984 2 0.833335 0.916671 0.558031
926 2 1 0.166528 0.56821
927 2 0.165322 0.167464 0.573132
930 2 0.333416 0.166777 0.568194
931 2 0.499997 0.166355 0.573235
934 2 0.666578 0.166777 0.568194
935 2 0.834673 0.167464 0.573132
939 2 0.165322 0.332533 0.573132
942 2 0.333416 0.33322 0.568194
946 2 0.666578 0.33322 0.568194
947 2 0.834673 0.332533 0.573132
985 2 1 0.0831498 0.583366
988 2 0.166634 0.0833581 0.578308
989 2 0.333345 0.0834061 0.583357
992 2 0.499997 0.0827015 0.578415
993 2 0.66665 0.0834061 0.583357
996 2 0.833361 0.0833581 0.578308
997 2 1 0.249999 0.583347
998 2 1 0.166661 0.588456
1000 2 0.165807 0.249999 0.578416
1001 2 0.333325 0.249999 0.583368
1002 2 0.333355 0.166669 0.58846
1004 2 0.499997 0.249999 0.578293
1005 2 0.66667 0.249999 0.583368
1006 2 0.66664 0.166669 0.58846
1008 2 0.834187 0.249999 0.578416
1014 2 0.333355 0.333328 0.58846
1018 2 0.66664 0.333328 0.58846
938 2 1 0.333469 0.56821
943 2 0.499997 0.333643 0.573235
951 2 0.167347 0.499997 0.573229
954 2 0.333157 0.499997 0.568203
955 2 0.499997 0.499997 0.572696
958 2 0.666838 0.499997 0.568203
959 2 0.832648 0.499997 0.573229
962 2 1 0.666526 0.56821
967 2 0.499997 0.666352 0.573235
1009 2 1 0.416847 0.583366
1010 2 1 0.333336 0.588456
1012 2 0.166634 0.416639 0.578308
1013 2 0.333345 0.416591 0.583357
1016 2 0.499997 0.417296 0.578415
1017 2 0.66665 0.416591 0.583357
1020 2 0.833361 0.416639 0.578308
1021 2 1 0.583147 0.583366
1022 2 1 0.499997 0.588465
1024 2 0.166634 0.583355 0.578308
1025 2 0.333345 0.583403 0.583357
1026 2 0.333262 0.499997 0.588457
1028 2 0.499997 0.582699 0.578415
1029 2 0.66665 0.583403 0.583357
1030 2 0.666733 0.499997 0.588457
1032 2 0.833361 0.583355 0.578308
1034 2 1 0.666658 0.588456
1038 2 0.333355 0.666666 0.58846
1042 2 0.66664 0.666666 0.58846
915 2 0.167347 1 0.573229
918 2 0.333157 1 0.568203
919 2 0.499997 1 0.572696
922 2 0.666838 1 0.568203
923 2 0.832648 1 0.573229
963 2 0.165322 0.667462 0.573132
966 2 0.333416 0.666775 0.568194
970 2 0.666578 0.666775 0.568194
971 2 0.834673 0.667462 0.573132
974 2 1 0.833466 0.56821
975 2 0.165322 0.83253 0.573132
978 2 0.333416 0.833217 0.568194
979 2 0.499997 0.83364 0.573235
982 2 0.666578 0.833217 0.568194
983 2 0.834672 0.83253 0.573132
986 2 1 1 0.588465
990 2 0.333262 1 0.588457
994 2 0.666733 1 0.588457
1033 2 1 0.749996 0.583347
1036 2 0.165807 0.749996 0.578416
1037 2 0.333325 0.749996 0.583368
1040 2 0.499997 0.749996 0.578293
1041 2 0.66667 0.749996 0.583368