# LAMMPS data file written by OVITO Basic 3.7.12
1840 atoms
2 atom types
0.0 7.6233663559 xlo xhi
0.0 15.2467327118 ylo yhi
0.0 141.66808885 zlo zhi

Masses

1 196.96655  # Au
2 12.0107  # C

Atoms  # atomic

1	1	7.57007027300000	15.2028779040000	0.123089564000001
2	1	7.56841084800000	3.69091228900000	0
3	1	7.56587263700000	7.67006290600000	0.0350465680000021
4	1	7.43710951600000	11.4419871300000	0.158768124000002
5	1	3.62601454300000	15.2043010480000	0.282061314000000
6	1	3.59227305100000	3.72155349200000	0.0974645440000010
7	1	3.53928936000000	7.52662805000000	0.216548152000001
8	1	3.68831091700000	11.5818950270000	0.0763769110000006
9	1	7.42295578300000	1.84378422300000	2.24196328900000
10	1	7.50256093300000	5.52319935900000	2.23388195100000
11	1	7.50977979600000	9.44171825300000	2.16543571600000
12	1	7.48867756100000	13.2302449080000	2.30592474300000
13	1	3.63536971200000	1.76520110600000	2.27023544700000
14	1	3.71014835200000	5.64916299500000	2.21615539900000
15	1	3.62108943100000	9.32509501800000	2.40275836800000
16	1	3.60763863700000	13.1749940480000	2.26245543200000
17	1	1.70223416900000	15.0543057370000	2.41565014600000
18	1	1.82151591500000	3.71476925100000	2.21578107100000
19	1	1.74732400300000	7.50233828300000	2.26795082800000
20	1	1.75317640800000	11.3122557090000	2.33657957500000
21	1	5.60150132400000	15.0592249420000	2.23259721100000
22	1	5.53819461800000	3.72100981700000	2.21093198200000
23	1	5.54970563100000	7.48197397400000	2.20921994900000
24	1	5.56681561300000	11.2268234870000	2.17158887000000
25	1	1.76968364400000	1.80950439400000	0.104695591000002
26	1	1.71062751100000	5.67129078300000	0.0650844379999995
27	1	1.85449380900000	9.62796009800000	0.219376370000003
28	1	1.73024412500000	13.2213970640000	0.142991586000001
29	1	5.62918264300000	1.86437958900000	0.141394428000002
30	1	5.65530813800000	5.58480665300000	0.133347087000001
31	1	5.38613138800000	9.48371915800000	0.143956036000002
32	1	5.68211612400000	13.3660042410000	0.124387903000002
33	1	7.57007027300000	15.2028779040000	4.64207971000000
34	1	7.56841084800000	3.69091228900000	4.51899014600000
35	1	7.56587263700000	7.67006290600000	4.55403671400000
36	1	7.43710951600000	11.4419871300000	4.67775827000000
37	1	3.62601454300000	15.2043010480000	4.80105146000000
38	1	3.59227305100000	3.72155349200000	4.61645469000000
39	1	3.53928936000000	7.52662805000000	4.73553829800000
40	1	3.68831091700000	11.5818950270000	4.59536705700000
41	1	7.42295578300000	1.84378422300000	6.76095343500000
42	1	7.50256093300000	5.52319935900000	6.75287209700000
43	1	7.50977979600000	9.44171825300000	6.68442586200000
44	1	7.48867756100000	13.2302449080000	6.82491488900000
45	1	3.63536971200000	1.76520110600000	6.78922559300000
46	1	3.71014835200000	5.64916299500000	6.73514554500000
47	1	3.62108943100000	9.32509501800000	6.92174851400000
48	1	3.60763863700000	13.1749940480000	6.78144557800000
49	1	1.70223416900000	15.0543057370000	6.93464029200000
50	1	1.82151591500000	3.71476925100000	6.73477121700000
51	1	1.74732400300000	7.50233828300000	6.78694097400000
52	1	1.75317640800000	11.3122557090000	6.85556972100000
53	1	5.60150132400000	15.0592249420000	6.75158735700000
54	1	5.53819461800000	3.72100981700000	6.72992212800000
55	1	5.54970563100000	7.48197397400000	6.72821009500000
56	1	5.56681561300000	11.2268234870000	6.69057901600000
57	1	1.76968364400000	1.80950439400000	4.62368573700000
58	1	1.71062751100000	5.67129078300000	4.58407458400000
59	1	1.85449380900000	9.62796009800000	4.73836651600000
60	1	1.73024412500000	13.2213970640000	4.66198173200000
61	1	5.62918264300000	1.86437958900000	4.66038457400000
62	1	5.65530813800000	5.58480665300000	4.65233723300000
63	1	5.38613138800000	9.48371915800000	4.66294618200000
64	1	5.68211612400000	13.3660042410000	4.64337804900000
65	1	7.57007027300000	15.2028779040000	9.16106985600000
66	1	7.56841084800000	3.69091228900000	9.03798029200000
67	1	7.56587263700000	7.67006290600000	9.07302686000000
68	1	7.43710951600000	11.4419871300000	9.19674841600000
69	1	3.62601454300000	15.2043010480000	9.32004160600000
70	1	3.59227305100000	3.72155349200000	9.13544483600000
71	1	3.53928936000000	7.52662805000000	9.25452844400000
72	1	3.68831091700000	11.5818950270000	9.11435720300000
73	1	7.42295578300000	1.84378422300000	11.2799435810000
74	1	7.50256093300000	5.52319935900000	11.2718622430000
75	1	7.50977979600000	9.44171825300000	11.2034160080000
76	1	7.48867756100000	13.2302449080000	11.3439050350000
77	1	3.63536971200000	1.76520110600000	11.3082157390000
78	1	3.71014835200000	5.64916299500000	11.2541356910000
79	1	3.62108943100000	9.32509501800000	11.4407386600000
80	1	3.60763863700000	13.1749940480000	11.3004357240000
81	1	1.70223416900000	15.0543057370000	11.4536304380000
82	1	1.82151591500000	3.71476925100000	11.2537613630000
83	1	1.74732400300000	7.50233828300000	11.3059311200000
84	1	1.75317640800000	11.3122557090000	11.3745598670000
85	1	5.60150132400000	15.0592249420000	11.2705775030000
86	1	5.53819461800000	3.72100981700000	11.2489122740000
87	1	5.54970563100000	7.48197397400000	11.2472002410000
88	1	5.56681561300000	11.2268234870000	11.2095691620000
89	1	1.76968364400000	1.80950439400000	9.14267588300000
90	1	1.71062751100000	5.67129078300000	9.10306473000000
91	1	1.85449380900000	9.62796009800000	9.25735666200000
92	1	1.73024412500000	13.2213970640000	9.18097187800000
93	1	5.62918264300000	1.86437958900000	9.17937472000000
94	1	5.65530813800000	5.58480665300000	9.17132737900000
95	1	5.38613138800000	9.48371915800000	9.18193632800000
96	1	5.68211612400000	13.3660042410000	9.16236819500000
97	1	7.57007027300000	15.2028779040000	13.6800600020000
98	1	7.56841084800000	3.69091228900000	13.5569704380000
99	1	7.56587263700000	7.67006290600000	13.5920170060000
100	1	7.43710951600000	11.4419871300000	13.7157385620000
101	1	3.62601454300000	15.2043010480000	13.8390317520000
102	1	3.59227305100000	3.72155349200000	13.6544349820000
103	1	3.53928936000000	7.52662805000000	13.7735185900000
104	1	3.68831091700000	11.5818950270000	13.6333473490000
105	1	7.42295578300000	1.84378422300000	15.7989337270000
106	1	7.50256093300000	5.52319935900000	15.7908523890000
107	1	7.50977979600000	9.44171825300000	15.7224061540000
108	1	7.48867756100000	13.2302449080000	15.8628951810000
109	1	3.63536971200000	1.76520110600000	15.8272058850000
110	1	3.71014835200000	5.64916299500000	15.7731258370000
111	1	3.62108943100000	9.32509501800000	15.9597288060000
112	1	3.60763863700000	13.1749940480000	15.8194258700000
113	1	1.70223416900000	15.0543057370000	15.9726205840000
114	1	1.82151591500000	3.71476925100000	15.7727515090000
115	1	1.74732400300000	7.50233828300000	15.8249212660000
116	1	1.75317640800000	11.3122557090000	15.8935500130000
117	1	5.60150132400000	15.0592249420000	15.7895676490000
118	1	5.53819461800000	3.72100981700000	15.7679024200000
119	1	5.54970563100000	7.48197397400000	15.7661903870000
120	1	5.56681561300000	11.2268234870000	15.7285593080000
121	1	1.76968364400000	1.80950439400000	13.6616660290000
122	1	1.71062751100000	5.67129078300000	13.6220548760000
123	1	1.85449380900000	9.62796009800000	13.7763468080000
124	1	1.73024412500000	13.2213970640000	13.6999620240000
125	1	5.62918264300000	1.86437958900000	13.6983648660000
126	1	5.65530813800000	5.58480665300000	13.6903175250000
127	1	5.38613138800000	9.48371915800000	13.7009264740000
128	1	5.68211612400000	13.3660042410000	13.6813583410000
129	1	7.57007027300000	15.2028779040000	18.1990501480000
130	1	7.56841084800000	3.69091228900000	18.0759605840000
131	1	7.56587263700000	7.67006290600000	18.1110071520000
132	1	7.43710951600000	11.4419871300000	18.2347287080000
133	1	3.62601454300000	15.2043010480000	18.3580218980000
134	1	3.59227305100000	3.72155349200000	18.1734251280000
135	1	3.53928936000000	7.52662805000000	18.2925087360000
136	1	3.68831091700000	11.5818950270000	18.1523374950000
137	1	7.42295578300000	1.84378422300000	20.3179238730000
138	1	7.50256093300000	5.52319935900000	20.3098425350000
139	1	7.50977979600000	9.44171825300000	20.2413963000000
140	1	7.48867756100000	13.2302449080000	20.3818853270000
141	1	3.63536971200000	1.76520110600000	20.3461960310000
142	1	3.71014835200000	5.64916299500000	20.2921159830000
143	1	3.62108943100000	9.32509501800000	20.4787189520000
144	1	3.60763863700000	13.1749940480000	20.3384160160000
145	1	1.70223416900000	15.0543057370000	20.4916107300000
146	1	1.82151591500000	3.71476925100000	20.2917416550000
147	1	1.74732400300000	7.50233828300000	20.3439114120000
148	1	1.75317640800000	11.3122557090000	20.4125401590000
149	1	5.60150132400000	15.0592249420000	20.3085577950000
150	1	5.53819461800000	3.72100981700000	20.2868925660000
151	1	5.54970563100000	7.48197397400000	20.2851805330000
152	1	5.56681561300000	11.2268234870000	20.2475494540000
153	1	1.76968364400000	1.80950439400000	18.1806561750000
154	1	1.71062751100000	5.67129078300000	18.1410450220000
155	1	1.85449380900000	9.62796009800000	18.2953369540000
156	1	1.73024412500000	13.2213970640000	18.2189521700000
157	1	5.62918264300000	1.86437958900000	18.2173550120000
158	1	5.65530813800000	5.58480665300000	18.2093076710000
159	1	5.38613138800000	9.48371915800000	18.2199166200000
160	1	5.68211612400000	13.3660042410000	18.2003484870000
161	1	7.57007027300000	15.2028779040000	22.7180402940000
162	1	7.56841084800000	3.69091228900000	22.5949507300000
163	1	7.56587263700000	7.67006290600000	22.6299972980000
164	1	7.43710951600000	11.4419871300000	22.7537188540000
165	1	3.62601454300000	15.2043010480000	22.8770120440000
166	1	3.59227305100000	3.72155349200000	22.6924152740000
167	1	3.53928936000000	7.52662805000000	22.8114988820000
168	1	3.68831091700000	11.5818950270000	22.6713276410000
169	1	7.42295578300000	1.84378422300000	24.8369140190000
170	1	7.50256093300000	5.52319935900000	24.8288326810000
171	1	7.50977979600000	9.44171825300000	24.7603864460000
172	1	7.48867756100000	13.2302449080000	24.9008754730000
173	1	3.63536971200000	1.76520110600000	24.8651861770000
174	1	3.71014835200000	5.64916299500000	24.8111061290000
175	1	3.62108943100000	9.32509501800000	24.9977090980000
176	1	3.60763863700000	13.1749940480000	24.8574061620000
177	1	1.70223416900000	15.0543057370000	25.0106008760000
178	1	1.82151591500000	3.71476925100000	24.8107318010000
179	1	1.74732400300000	7.50233828300000	24.8629015580000
180	1	1.75317640800000	11.3122557090000	24.9315303050000
181	1	5.60150132400000	15.0592249420000	24.8275479410000
182	1	5.53819461800000	3.72100981700000	24.8058827120000
183	1	5.54970563100000	7.48197397400000	24.8041706790000
184	1	5.56681561300000	11.2268234870000	24.7665396000000
185	1	1.76968364400000	1.80950439400000	22.6996463210000
186	1	1.71062751100000	5.67129078300000	22.6600351680000
187	1	1.85449380900000	9.62796009800000	22.8143271000000
188	1	1.73024412500000	13.2213970640000	22.7379423160000
189	1	5.62918264300000	1.86437958900000	22.7363451580000
190	1	5.65530813800000	5.58480665300000	22.7282978170000
191	1	5.38613138800000	9.48371915800000	22.7389067660000
192	1	5.68211612400000	13.3660042410000	22.7193386330000
193	1	7.57007027300000	15.2028779040000	27.2370304400000
194	1	7.56841084800000	3.69091228900000	27.1139408760000
195	1	7.56587263700000	7.67006290600000	27.1489874440000
196	1	7.43710951600000	11.4419871300000	27.2727090000000
197	1	3.62601454300000	15.2043010480000	27.3960021900000
198	1	3.59227305100000	3.72155349200000	27.2114054200000
199	1	3.53928936000000	7.52662805000000	27.3304890280000
200	1	3.68831091700000	11.5818950270000	27.1903177870000
201	1	7.42295578300000	1.84378422300000	29.3559041650000
202	1	7.50256093300000	5.52319935900000	29.3478228270000
203	1	7.50977979600000	9.44171825300000	29.2793765920000
204	1	7.48867756100000	13.2302449080000	29.4198656190000
205	1	3.63536971200000	1.76520110600000	29.3841763230000
206	1	3.71014835200000	5.64916299500000	29.3300962750000
207	1	3.62108943100000	9.32509501800000	29.5166992440000
208	1	3.60763863700000	13.1749940480000	29.3763963080000
209	1	1.70223416900000	15.0543057370000	29.5295910220000
210	1	1.82151591500000	3.71476925100000	29.3297219470000
211	1	1.74732400300000	7.50233828300000	29.3818917040000
212	1	1.75317640800000	11.3122557090000	29.4505204510000
213	1	5.60150132400000	15.0592249420000	29.3465380870000
214	1	5.53819461800000	3.72100981700000	29.3248728580000
215	1	5.54970563100000	7.48197397400000	29.3231608250000
216	1	5.56681561300000	11.2268234870000	29.2855297460000
217	1	1.76968364400000	1.80950439400000	27.2186364670000
218	1	1.71062751100000	5.67129078300000	27.1790253140000
219	1	1.85449380900000	9.62796009800000	27.3333172460000
220	1	1.73024412500000	13.2213970640000	27.2569324620000
221	1	5.62918264300000	1.86437958900000	27.2553353040000
222	1	5.65530813800000	5.58480665300000	27.2472879630000
223	1	5.38613138800000	9.48371915800000	27.2578969120000
224	1	5.68211612400000	13.3660042410000	27.2383287790000
225	1	7.57007027300000	15.2028779040000	31.7560205860000
226	1	7.56841084800000	3.69091228900000	31.6329310220000
227	1	7.56587263700000	7.67006290600000	31.6679775900000
228	1	7.43710951600000	11.4419871300000	31.7916991460000
229	1	3.62601454300000	15.2043010480000	31.9149923360000
230	1	3.59227305100000	3.72155349200000	31.7303955660000
231	1	3.53928936000000	7.52662805000000	31.8494791740000
232	1	3.68831091700000	11.5818950270000	31.7093079330000
233	1	7.42295578300000	1.84378422300000	33.8748943110000
234	1	7.50256093300000	5.52319935900000	33.8668129730000
235	1	7.50977979600000	9.44171825300000	33.7983667380000
236	1	7.48867756100000	13.2302449080000	33.9388557650000
237	1	3.63536971200000	1.76520110600000	33.9031664690000
238	1	3.71014835200000	5.64916299500000	33.8490864210000
239	1	3.62108943100000	9.32509501800000	34.0356893900000
240	1	3.60763863700000	13.1749940480000	33.8953864540000
241	1	1.70223416900000	15.0543057370000	34.0485811680000
242	1	1.82151591500000	3.71476925100000	33.8487120930000
243	1	1.74732400300000	7.50233828300000	33.9008818500000
244	1	1.75317640800000	11.3122557090000	33.9695105970000
245	1	5.60150132400000	15.0592249420000	33.8655282330000
246	1	5.53819461800000	3.72100981700000	33.8438630040000
247	1	5.54970563100000	7.48197397400000	33.8421509710000
248	1	5.56681561300000	11.2268234870000	33.8045198920000
249	1	1.76968364400000	1.80950439400000	31.7376266130000
250	1	1.71062751100000	5.67129078300000	31.6980154600000
251	1	1.85449380900000	9.62796009800000	31.8523073920000
252	1	1.73024412500000	13.2213970640000	31.7759226080000
253	1	5.62918264300000	1.86437958900000	31.7743254500000
254	1	5.65530813800000	5.58480665300000	31.7662781090000
255	1	5.38613138800000	9.48371915800000	31.7768870580000
256	1	5.68211612400000	13.3660042410000	31.7573189250000
257	1	7.57007027300000	15.2028779040000	36.2750107320000
258	1	7.56841084800000	3.69091228900000	36.1519211680000
259	1	7.56587263700000	7.67006290600000	36.1869677360000
260	1	7.43710951600000	11.4419871300000	36.3106892920000
261	1	3.62601454300000	15.2043010480000	36.4339824820000
262	1	3.59227305100000	3.72155349200000	36.2493857120000
263	1	3.53928936000000	7.52662805000000	36.3684693200000
264	1	3.68831091700000	11.5818950270000	36.2282980790000
265	1	7.42295578300000	1.84378422300000	38.3938844570000
266	1	7.50256093300000	5.52319935900000	38.3858031190000
267	1	7.50977979600000	9.44171825300000	38.3173568840000
268	1	7.48867756100000	13.2302449080000	38.4578459110000
269	1	3.63536971200000	1.76520110600000	38.4221566150000
270	1	3.71014835200000	5.64916299500000	38.3680765670000
271	1	3.62108943100000	9.32509501800000	38.5546795360000
272	1	3.60763863700000	13.1749940480000	38.4143766000000
273	1	1.70223416900000	15.0543057370000	38.5675713140000
274	1	1.82151591500000	3.71476925100000	38.3677022390000
275	1	1.74732400300000	7.50233828300000	38.4198719960000
276	1	1.75317640800000	11.3122557090000	38.4885007430000
277	1	5.60150132400000	15.0592249420000	38.3845183790000
278	1	5.53819461800000	3.72100981700000	38.3628531500000
279	1	5.54970563100000	7.48197397400000	38.3611411170000
280	1	5.56681561300000	11.2268234870000	38.3235100380000
281	1	1.76968364400000	1.80950439400000	36.2566167590000
282	1	1.71062751100000	5.67129078300000	36.2170056060000
283	1	1.85449380900000	9.62796009800000	36.3712975380000
284	1	1.73024412500000	13.2213970640000	36.2949127540000
285	1	5.62918264300000	1.86437958900000	36.2933155960000
286	1	5.65530813800000	5.58480665300000	36.2852682550000
287	1	5.38613138800000	9.48371915800000	36.2958772040000
288	1	5.68211612400000	13.3660042410000	36.2763090710000
289	1	7.57007027300000	15.2028779040000	40.7940008780000
290	1	7.56841084800000	3.69091228900000	40.6709113140000
291	1	7.56587263700000	7.67006290600000	40.7059578820000
292	1	7.43710951600000	11.4419871300000	40.8296794380000
293	1	3.62601454300000	15.2043010480000	40.9529726280000
294	1	3.59227305100000	3.72155349200000	40.7683758580000
295	1	3.53928936000000	7.52662805000000	40.8874594660000
296	1	3.68831091700000	11.5818950270000	40.7472882250000
297	1	7.42295578300000	1.84378422300000	42.9128746030000
298	1	7.50256093300000	5.52319935900000	42.9047932650000
299	1	7.50977979600000	9.44171825300000	42.8363470300000
300	1	7.48867756100000	13.2302449080000	42.9768360570000
301	1	3.63536971200000	1.76520110600000	42.9411467610000
302	1	3.71014835200000	5.64916299500000	42.8870667130000
303	1	3.62108943100000	9.32509501800000	43.0736696820000
304	1	3.60763863700000	13.1749940480000	42.9333667460000
305	1	1.70223416900000	15.0543057370000	43.0865614600000
306	1	1.82151591500000	3.71476925100000	42.8866923850000
307	1	1.74732400300000	7.50233828300000	42.9388621420000
308	1	1.75317640800000	11.3122557090000	43.0074908890000
309	1	5.60150132400000	15.0592249420000	42.9035085250000
310	1	5.53819461800000	3.72100981700000	42.8818432960000
311	1	5.54970563100000	7.48197397400000	42.8801312630000
312	1	5.56681561300000	11.2268234870000	42.8425001840000
313	1	1.76968364400000	1.80950439400000	40.7756069050000
314	1	1.71062751100000	5.67129078300000	40.7359957520000
315	1	1.85449380900000	9.62796009800000	40.8902876840000
316	1	1.73024412500000	13.2213970640000	40.8139029000000
317	1	5.62918264300000	1.86437958900000	40.8123057420000
318	1	5.65530813800000	5.58480665300000	40.8042584010000
319	1	5.38613138800000	9.48371915800000	40.8148673500000
320	1	5.68211612400000	13.3660042410000	40.7952992170000
321	1	7.57007027300000	15.2028779040000	45.3129910240000
322	1	7.56841084800000	3.69091228900000	45.1899014600000
323	1	7.56587263700000	7.67006290600000	45.2249480280000
324	1	7.43710951600000	11.4419871300000	45.3486695840000
325	1	3.62601454300000	15.2043010480000	45.4719627740000
326	1	3.59227305100000	3.72155349200000	45.2873660040000
327	1	3.53928936000000	7.52662805000000	45.4064496120000
328	1	3.68831091700000	11.5818950270000	45.2662783710000
329	1	7.42295578300000	1.84378422300000	47.4318647490000
330	1	7.50256093300000	5.52319935900000	47.4237834110000
331	1	7.50977979600000	9.44171825300000	47.3553371760000
332	1	7.48867756100000	13.2302449080000	47.4958262030000
333	1	3.63536971200000	1.76520110600000	47.4601369070000
334	1	3.71014835200000	5.64916299500000	47.4060568590000
335	1	3.62108943100000	9.32509501800000	47.5926598280000
336	1	3.60763863700000	13.1749940480000	47.4523568920000
337	1	1.70223416900000	15.0543057370000	47.6055516060000
338	1	1.82151591500000	3.71476925100000	47.4056825310000
339	1	1.74732400300000	7.50233828300000	47.4578522880000
340	1	1.75317640800000	11.3122557090000	47.5264810350000
341	1	5.60150132400000	15.0592249420000	47.4224986710000
342	1	5.53819461800000	3.72100981700000	47.4008334420000
343	1	5.54970563100000	7.48197397400000	47.3991214090000
344	1	5.56681561300000	11.2268234870000	47.3614903300000
345	1	1.76968364400000	1.80950439400000	45.2945970510000
346	1	1.71062751100000	5.67129078300000	45.2549858980000
347	1	1.85449380900000	9.62796009800000	45.4092778300000
348	1	1.73024412500000	13.2213970640000	45.3328930460000
349	1	5.62918264300000	1.86437958900000	45.3312958880000
350	1	5.65530813800000	5.58480665300000	45.3232485470000
351	1	5.38613138800000	9.48371915800000	45.3338574960000
352	1	5.68211612400000	13.3660042410000	45.3142893630000
353	1	7.57007027300000	15.2028779040000	49.8319811700000
354	1	7.56841084800000	3.69091228900000	49.7088916060000
355	1	7.56587263700000	7.67006290600000	49.7439381740000
356	1	7.43710951600000	11.4419871300000	49.8676597300000
357	1	3.62601454300000	15.2043010480000	49.9909529200000
358	1	3.59227305100000	3.72155349200000	49.8063561500000
359	1	3.53928936000000	7.52662805000000	49.9254397580000
360	1	3.68831091700000	11.5818950270000	49.7852685170000
361	1	7.42295578300000	1.84378422300000	51.9508548950000
362	1	7.50256093300000	5.52319935900000	51.9427735570000
363	1	7.50977979600000	9.44171825300000	51.8743273220000
364	1	7.48867756100000	13.2302449080000	52.0148163490000
365	1	3.63536971200000	1.76520110600000	51.9791270530000
366	1	3.71014835200000	5.64916299500000	51.9250470050000
367	1	3.62108943100000	9.32509501800000	52.1116499740000
368	1	3.60763863700000	13.1749940480000	51.9713470380000
369	1	1.70223416900000	15.0543057370000	52.1245417520000
370	1	1.82151591500000	3.71476925100000	51.9246726770000
371	1	1.74732400300000	7.50233828300000	51.9768424340000
372	1	1.75317640800000	11.3122557090000	52.0454711810000
373	1	5.60150132400000	15.0592249420000	51.9414888170000
374	1	5.53819461800000	3.72100981700000	51.9198235880000
375	1	5.54970563100000	7.48197397400000	51.9181115550000
376	1	5.56681561300000	11.2268234870000	51.8804804760000
377	1	1.76968364400000	1.80950439400000	49.8135871970000
378	1	1.71062751100000	5.67129078300000	49.7739760440000
379	1	1.85449380900000	9.62796009800000	49.9282679760000
380	1	1.73024412500000	13.2213970640000	49.8518831920000
381	1	5.62918264300000	1.86437958900000	49.8502860340000
382	1	5.65530813800000	5.58480665300000	49.8422386930000
383	1	5.38613138800000	9.48371915800000	49.8528476420000
384	1	5.68211612400000	13.3660042410000	49.8332795090000
385	1	7.57007027300000	15.2028779040000	54.3509713160000
386	1	7.56841084800000	3.69091228900000	54.2278817520000
387	1	7.56587263700000	7.67006290600000	54.2629283200000
388	1	7.43710951600000	11.4419871300000	54.3866498760000
389	1	3.62601454300000	15.2043010480000	54.5099430660000
390	1	3.59227305100000	3.72155349200000	54.3253462960000
391	1	3.53928936000000	7.52662805000000	54.4444299040000
392	1	3.68831091700000	11.5818950270000	54.3042586630000
393	1	7.42295578300000	1.84378422300000	56.4698450410000
394	1	7.50256093300000	5.52319935900000	56.4617637030000
395	1	7.50977979600000	9.44171825300000	56.3933174680000
396	1	7.48867756100000	13.2302449080000	56.5338064950000
397	1	3.63536971200000	1.76520110600000	56.4981171990000
398	1	3.71014835200000	5.64916299500000	56.4440371510000
399	1	3.62108943100000	9.32509501800000	56.6306401200000
400	1	3.60763863700000	13.1749940480000	56.4903371840000
401	1	1.70223416900000	15.0543057370000	56.6435318980000
402	1	1.82151591500000	3.71476925100000	56.4436628230000
403	1	1.74732400300000	7.50233828300000	56.4958325800000
404	1	1.75317640800000	11.3122557090000	56.5644613270000
405	1	5.60150132400000	15.0592249420000	56.4604789630000
406	1	5.53819461800000	3.72100981700000	56.4388137340000
407	1	5.54970563100000	7.48197397400000	56.4371017010000
408	1	5.56681561300000	11.2268234870000	56.3994706220000
409	1	1.76968364400000	1.80950439400000	54.3325773430000
410	1	1.71062751100000	5.67129078300000	54.2929661900000
411	1	1.85449380900000	9.62796009800000	54.4472581220000
412	1	1.73024412500000	13.2213970640000	54.3708733380000
413	1	5.62918264300000	1.86437958900000	54.3692761800000
414	1	5.65530813800000	5.58480665300000	54.3612288390000
415	1	5.38613138800000	9.48371915800000	54.3718377880000
416	1	5.68211612400000	13.3660042410000	54.3522696550000
417	1	7.57007027300000	15.2028779040000	58.8699614620000
418	1	7.56841084800000	3.69091228900000	58.7468718980000
419	1	7.56587263700000	7.67006290600000	58.7819184660000
420	1	7.43710951600000	11.4419871300000	58.9056400220000
421	1	3.62601454300000	15.2043010480000	59.0289332120000
422	1	3.59227305100000	3.72155349200000	58.8443364420000
423	1	3.53928936000000	7.52662805000000	58.9634200500000
424	1	3.68831091700000	11.5818950270000	58.8232488090000
425	1	7.42295578300000	1.84378422300000	60.9888351870000
426	1	7.50256093300000	5.52319935900000	60.9807538490000
427	1	7.50977979600000	9.44171825300000	60.9123076140000
428	1	7.48867756100000	13.2302449080000	61.0527966410000
429	1	3.63536971200000	1.76520110600000	61.0171073450000
430	1	3.71014835200000	5.64916299500000	60.9630272970000
431	1	3.62108943100000	9.32509501800000	61.1496302660000
432	1	3.60763863700000	13.1749940480000	61.0093273300000
433	1	1.70223416900000	15.0543057370000	61.1625220440000
434	1	1.82151591500000	3.71476925100000	60.9626529690000
435	1	1.74732400300000	7.50233828300000	61.0148227260000
436	1	1.75317640800000	11.3122557090000	61.0834514730000
437	1	5.60150132400000	15.0592249420000	60.9794691090000
438	1	5.53819461800000	3.72100981700000	60.9578038800000
439	1	5.54970563100000	7.48197397400000	60.9560918470000
440	1	5.56681561300000	11.2268234870000	60.9184607680000
441	1	1.76968364400000	1.80950439400000	58.8515674890000
442	1	1.71062751100000	5.67129078300000	58.8119563360000
443	1	1.85449380900000	9.62796009800000	58.9662482680000
444	1	1.73024412500000	13.2213970640000	58.8898634840000
445	1	5.62918264300000	1.86437958900000	58.8882663260000
446	1	5.65530813800000	5.58480665300000	58.8802189850000
447	1	5.38613138800000	9.48371915800000	58.8908279340000
448	1	5.68211612400000	13.3660042410000	58.8712598010000
449	1	7.57007027300000	15.2028779040000	63.3889516080000
450	1	7.56841084800000	3.69091228900000	63.2658620440000
451	1	7.56587263700000	7.67006290600000	63.3009086120000
452	1	7.43710951600000	11.4419871300000	63.4246301680000
453	1	3.62601454300000	15.2043010480000	63.5479233580000
454	1	3.59227305100000	3.72155349200000	63.3633265880000
455	1	3.53928936000000	7.52662805000000	63.4824101960000
456	1	3.68831091700000	11.5818950270000	63.3422389550000
457	1	7.42295578300000	1.84378422300000	65.5078253330000
458	1	7.50256093300000	5.52319935900000	65.4997439950000
459	1	7.50977979600000	9.44171825300000	65.4312977600000
460	1	7.48867756100000	13.2302449080000	65.5717867870000
461	1	3.63536971200000	1.76520110600000	65.5360974910000
462	1	3.71014835200000	5.64916299500000	65.4820174430000
463	1	3.62108943100000	9.32509501800000	65.6686204120000
464	1	3.60763863700000	13.1749940480000	65.5283174760000
465	1	1.70223416900000	15.0543057370000	65.6815121900000
466	1	1.82151591500000	3.71476925100000	65.4816431150000
467	1	1.74732400300000	7.50233828300000	65.5338128720000
468	1	1.75317640800000	11.3122557090000	65.6024416190000
469	1	5.60150132400000	15.0592249420000	65.4984592550000
470	1	5.53819461800000	3.72100981700000	65.4767940260000
471	1	5.54970563100000	7.48197397400000	65.4750819930000
472	1	5.56681561300000	11.2268234870000	65.4374509140000
473	1	1.76968364400000	1.80950439400000	63.3705576350000
474	1	1.71062751100000	5.67129078300000	63.3309464820000
475	1	1.85449380900000	9.62796009800000	63.4852384140000
476	1	1.73024412500000	13.2213970640000	63.4088536300000
477	1	5.62918264300000	1.86437958900000	63.4072564720000
478	1	5.65530813800000	5.58480665300000	63.3992091310000
479	1	5.38613138800000	9.48371915800000	63.4098180800000
480	1	5.68211612400000	13.3660042410000	63.3902499470000
481	1	7.57007027300000	15.2028779040000	67.9079895640000
482	1	7.43685505900000	15.0899424820000	72.1848224620000
483	1	7.56841084800000	3.69091228900000	67.7849000000000
484	1	7.48318673600000	3.71921089400000	72.2729942900000
485	1	7.56587263700000	7.67006290600000	67.8199465680000
486	1	7.49000028400000	7.44088366300000	71.9995929830000
487	1	7.43710951600000	11.4419871300000	67.9436681240000
488	1	7.45557312000000	11.2766671290000	72.1744393270000
489	1	3.62601454300000	15.2043010480000	68.0669613140000
490	1	3.57326872500000	15.0081835330000	72.2474662510000
491	1	3.59227305100000	3.72155349200000	67.8823645440000
492	1	3.75567553500000	3.76242660500000	72.1740993540000
493	1	3.53928936000000	7.52662805000000	68.0014481520000
494	1	3.63425328000000	7.41629945200000	72.0814470390000
495	1	3.68831091700000	11.5818950270000	67.8612769110000
496	1	3.72404899100000	11.2803649380000	72.1580848350000
497	1	7.42295578300000	1.84378422300000	70.0268632890000
498	1	7.42679717900000	1.75850978700000	74.3763323210000
499	1	7.50256093300000	5.52319935900000	70.0187819510000
500	1	7.40897608000000	5.63789689700000	74.4934190350000
501	1	7.50977979600000	9.44171825300000	69.9503357160000
502	1	7.32472208600000	9.35229377800000	74.2872014110000
503	1	7.48867756100000	13.2302449080000	70.0908247430000
504	1	7.44847785100000	13.2986848350000	74.3292728950000
505	1	3.63536971200000	1.76520110600000	70.0551354470000
506	1	3.75023378400000	1.81393513200000	74.2057846680000
507	1	3.71014835200000	5.64916299500000	70.0010553990000
508	1	3.81968449700000	5.59540434500000	74.5787222070000
509	1	3.62108943100000	9.32509501800000	70.1876583680000
510	1	3.70957877700000	9.36114980100000	74.3662369110000
511	1	3.60763863700000	13.1749940480000	70.0473554320000
512	1	3.74509056500000	13.1476162600000	74.4037506100000
513	1	1.70223416900000	15.0543057370000	70.2005501460000
514	1	1.82230904900000	15.1724866140000	74.6885134570000
515	1	1.82151591500000	3.71476925100000	70.0006810710000
516	1	1.76933603700000	3.85280166100000	74.3125576730000
517	1	1.74732400300000	7.50233828300000	70.0528508280000
518	1	1.82433846000000	7.58655501700000	74.3543113730000
519	1	1.75317640800000	11.3122557090000	70.1214795750000
520	1	1.78636559200000	11.2496310400000	74.3673656210000
521	1	5.60150132400000	15.0592249420000	70.0174972110000
522	1	5.49300845400000	15.1329394050000	74.2729196800000
523	1	5.53819461800000	3.72100981700000	69.9958319820000
524	1	5.49508182600000	3.65842377100000	74.3857184400000