# LAMMPS data file written by OVITO Basic 3.7.12
2168 atoms
2 atom types
0.0 173.023500 xlo xhi 
0.0 10.7514 ylo yhi
0.0 10.7514 zlo zhi

Masses
 
1 28.0855  # Si
2 12.0107  # C

 
Atoms  # atomic

1	1	0	10.723466	2.137446
2	1	4.447056	4.044408	3.865018
3	1	3.334461	-0.008932	0.078368
4	1	4.343955	1.561374	1.547348
5	1	2.992498	2.330782	3.329049
6	1	1.778549	9.417251	1.296118
7	1	0.206498	5.435077	3.132737
8	1	1.866627	6.586850	4.079880
9	1	4.304932	9.544091	4.009231
10	1	2.536670	5.781827	10.387557
11	1	4.135258	6.753088	1.175304
12	1	3.081841	8.125270	2.822497
13	1	1.955925	4.055451	6.857247
14	1	1.801955	1.178461	9.588224
15	1	0.229114	3.162885	5.407848
16	1	4.190069	4.151103	9.612875
17	1	2.731149	0.557872	4.815694
18	1	4.124257	1.424470	6.546666
19	1	3.024539	2.585356	8.248567
20	1	0.087176	5.236935	7.533497
21	1	4.385512	9.432411	9.394016
22	1	3.250186	5.327426	5.325793
23	1	4.307302	6.884352	6.724812
24	1	3.154927	7.503588	8.717284
25	1	6.962011	3.949739	1.320930
26	1	5.600415	10.769006	2.620034
27	1	7.014087	1.226359	4.058295
28	1	5.540315	2.762329	0.039525
29	1	9.558899	4.107717	4.153651
30	1	8.291811	0.003002	10.741926
31	1	9.621280	1.238307	1.439545
32	1	8.270094	2.560400	2.654494
33	1	6.892050	9.319707	1.320685
34	1	5.658359	5.371450	2.606543
35	1	6.927604	6.797550	4.131128
36	1	5.567178	7.950043	-0.066374
37	1	9.923554	9.339330	4.104775
38	1	8.361630	5.354205	10.871467
39	1	9.846238	6.536416	1.424939
40	1	8.374262	7.963623	2.673486
41	1	6.928031	4.097918	6.901460
42	1	5.539936	0.114324	7.954956
43	1	6.961740	1.424929	9.264600
44	1	5.686049	2.701656	5.396220
45	1	9.723395	3.925779	9.608802
46	1	8.443744	10.788850	5.315961
47	1	9.865861	1.212956	6.739812
48	1	8.474671	2.733283	8.097257
49	1	7.233849	9.421183	6.726370
50	1	5.530000	5.477607	8.183460
51	1	7.072488	6.678019	9.483954
52	1	5.568849	8.261664	5.454540
53	1	9.787255	9.490170	9.489172
54	1	8.199179	5.355282	5.484431
55	1	9.819521	6.636776	6.774433
56	1	8.554638	8.138523	8.169827
57	1	12.612111	3.949739	1.320930
58	1	11.250515	10.769006	2.620034
59	1	12.664187	1.226359	4.058295
60	1	11.190415	2.762329	0.039525
61	1	15.208999	4.107717	4.153651
62	1	13.941911	0.003002	10.741926
63	1	15.271380	1.238307	1.439545
64	1	13.920194	2.560400	2.654494
65	1	12.542150	9.319707	1.320685
66	1	11.308459	5.371450	2.606543
67	1	12.577704	6.797550	4.131128
68	1	11.217278	7.950043	-0.066374
69	1	15.573654	9.339330	4.104775
70	1	14.011730	5.354205	10.871467
71	1	15.496338	6.536416	1.424939
72	1	14.024362	7.963623	2.673486
73	1	12.578131	4.097918	6.901460
74	1	11.190036	0.114324	7.954956
75	1	12.611840	1.424929	9.264600
76	1	11.336149	2.701656	5.396220
77	1	15.373495	3.925779	9.608802
78	1	14.093844	10.788850	5.315961
79	1	15.515961	1.212956	6.739812
80	1	14.124771	2.733283	8.097257
81	1	12.883949	9.421183	6.726370
82	1	11.180100	5.477607	8.183460
83	1	12.722588	6.678019	9.483954
84	1	11.218949	8.261664	5.454540
85	1	15.437355	9.490170	9.489172
86	1	13.849279	5.355282	5.484431
87	1	15.469621	6.636776	6.774433
88	1	14.204738	8.138523	8.169827
89	1	18.262211	3.949739	1.320930
90	1	16.900615	10.769006	2.620034
91	1	18.314287	1.226359	4.058295
92	1	16.840515	2.762329	0.039525
93	1	20.859099	4.107717	4.153651
94	1	19.592011	0.003002	10.741926
95	1	20.921480	1.238307	1.439545
96	1	19.570294	2.560400	2.654494
97	1	18.192250	9.319707	1.320685
98	1	16.958559	5.371450	2.606543
99	1	18.227804	6.797550	4.131128
100	1	16.867378	7.950043	-0.066374
101	1	21.223754	9.339330	4.104775
102	1	19.661830	5.354205	10.871467
103	1	21.146438	6.536416	1.424939
104	1	19.674462	7.963623	2.673486
105	1	18.228231	4.097918	6.901460
106	1	16.840136	0.114324	7.954956
107	1	18.261940	1.424929	9.264600
108	1	16.986249	2.701656	5.396220
109	1	21.023595	3.925779	9.608802
110	1	19.743944	10.788850	5.315961
111	1	21.166061	1.212956	6.739812
112	1	19.774871	2.733283	8.097257
113	1	18.534049	9.421183	6.726370
114	1	16.830200	5.477607	8.183460
115	1	18.372688	6.678019	9.483954
116	1	16.869049	8.261664	5.454540
117	1	21.087455	9.490170	9.489172
118	1	19.499379	5.355282	5.484431
119	1	21.119721	6.636776	6.774433
120	1	19.854838	8.138523	8.169827
121	1	23.912311	3.949739	1.320930
122	1	22.550715	10.769006	2.620034
123	1	23.964387	1.226359	4.058295
124	1	22.490615	2.762329	0.039525
125	1	26.509199	4.107717	4.153651
126	1	25.242111	0.003002	10.741926
127	1	26.571580	1.238307	1.439545
128	1	25.220394	2.560400	2.654494
129	1	23.842350	9.319707	1.320685
130	1	22.608659	5.371450	2.606543
131	1	23.877904	6.797550	4.131128
132	1	22.517478	7.950043	-0.066374
133	1	26.873854	9.339330	4.104775
134	1	25.311930	5.354205	10.871467
135	1	26.796538	6.536416	1.424939
136	1	25.324562	7.963623	2.673486
137	1	23.878331	4.097918	6.901460
138	1	22.490236	0.114324	7.954956
139	1	23.912040	1.424929	9.264600
140	1	22.636349	2.701656	5.396220
141	1	26.673695	3.925779	9.608802
142	1	25.394044	10.788850	5.315961
143	1	26.816161	1.212956	6.739812
144	1	25.424971	2.733283	8.097257
145	1	24.184149	9.421183	6.726370
146	1	22.480300	5.477607	8.183460
147	1	24.022788	6.678019	9.483954
148	1	22.519149	8.261664	5.454540
149	1	26.737555	9.490170	9.489172
150	1	25.149479	5.355282	5.484431
151	1	26.769821	6.636776	6.774433
152	1	25.504938	8.138523	8.169827
153	1	29.562411	3.949739	1.320930
154	1	28.200815	10.769006	2.620034
155	1	29.614487	1.226359	4.058295
156	1	28.140715	2.762329	0.039525
157	1	32.159299	4.107717	4.153651
158	1	30.892211	0.003002	10.741926
159	1	32.221680	1.238307	1.439545
160	1	30.870494	2.560400	2.654494
161	1	29.492450	9.319707	1.320685
162	1	28.258759	5.371450	2.606543
163	1	29.528004	6.797550	4.131128
164	1	28.167578	7.950043	-0.066374
165	1	32.523954	9.339330	4.104775
166	1	30.962030	5.354205	10.871467
167	1	32.446638	6.536416	1.424939
168	1	30.974662	7.963623	2.673486
169	1	29.528431	4.097918	6.901460
170	1	28.140336	0.114324	7.954956
171	1	29.562140	1.424929	9.264600
172	1	28.286449	2.701656	5.396220
173	1	32.323795	3.925779	9.608802
174	1	31.044144	10.788850	5.315961
175	1	32.466261	1.212956	6.739812
176	1	31.075071	2.733283	8.097257
177	1	29.834249	9.421183	6.726370
178	1	28.130400	5.477607	8.183460
179	1	29.672888	6.678019	9.483954
180	1	28.169249	8.261664	5.454540
181	1	32.387655	9.490170	9.489172
182	1	30.799579	5.355282	5.484431
183	1	32.419921	6.636776	6.774433
184	1	31.155038	8.138523	8.169827
185	1	35.212511	3.949739	1.320930
186	1	33.850915	10.769006	2.620034
187	1	35.264587	1.226359	4.058295
188	1	33.790815	2.762329	0.039525
189	1	37.809399	4.107717	4.153651
190	1	36.542311	0.003002	10.741926
191	1	37.871780	1.238307	1.439545
192	1	36.520594	2.560400	2.654494
193	1	35.142550	9.319707	1.320685
194	1	33.908859	5.371450	2.606543
195	1	35.178104	6.797550	4.131128
196	1	33.817678	7.950043	-0.066374
197	1	38.174054	9.339330	4.104775
198	1	36.612130	5.354205	10.871467
199	1	38.096738	6.536416	1.424939
200	1	36.624762	7.963623	2.673486
201	1	35.178531	4.097918	6.901460
202	1	33.790436	0.114324	7.954956
203	1	35.212240	1.424929	9.264600
204	1	33.936549	2.701656	5.396220
205	1	37.973895	3.925779	9.608802
206	1	36.694244	10.788850	5.315961
207	1	38.116361	1.212956	6.739812
208	1	36.725171	2.733283	8.097257
209	1	35.484349	9.421183	6.726370
210	1	33.780500	5.477607	8.183460
211	1	35.322988	6.678019	9.483954
212	1	33.819349	8.261664	5.454540
213	1	38.037755	9.490170	9.489172
214	1	36.449679	5.355282	5.484431
215	1	38.070021	6.636776	6.774433
216	1	36.805138	8.138523	8.169827
217	1	40.862611	3.949739	1.320930
218	1	39.501015	10.769006	2.620034
219	1	40.914687	1.226359	4.058295
220	1	39.440915	2.762329	0.039525
221	1	43.459499	4.107717	4.153651
222	1	42.192411	0.003002	10.741926
223	1	43.521880	1.238307	1.439545
224	1	42.170694	2.560400	2.654494
225	1	40.792650	9.319707	1.320685
226	1	39.558959	5.371450	2.606543
227	1	40.828204	6.797550	4.131128
228	1	39.467778	7.950043	-0.066374
229	1	43.824154	9.339330	4.104775
230	1	42.262230	5.354205	10.871467
231	1	43.746838	6.536416	1.424939
232	1	42.274862	7.963623	2.673486
233	1	40.828631	4.097918	6.901460
234	1	39.440536	0.114324	7.954956
235	1	40.862340	1.424929	9.264600
236	1	39.586649	2.701656	5.396220
237	1	43.623995	3.925779	9.608802
238	1	42.344344	10.788850	5.315961
239	1	43.766461	1.212956	6.739812
240	1	42.375271	2.733283	8.097257
241	1	41.134449	9.421183	6.726370
242	1	39.430600	5.477607	8.183460
243	1	40.973088	6.678019	9.483954
244	1	39.469449	8.261664	5.454540
245	1	43.687855	9.490170	9.489172
246	1	42.099779	5.355282	5.484431
247	1	43.720121	6.636776	6.774433
248	1	42.455238	8.138523	8.169827
249	1	46.512711	3.949739	1.320930
250	1	45.151115	10.769006	2.620034
251	1	46.564787	1.226359	4.058295
252	1	45.091015	2.762329	0.039525
253	1	49.109599	4.107717	4.153651
254	1	47.842511	0.003002	10.741926
255	1	49.171980	1.238307	1.439545
256	1	47.820794	2.560400	2.654494
257	1	46.442750	9.319707	1.320685
258	1	45.209059	5.371450	2.606543
259	1	46.478304	6.797550	4.131128
260	1	45.117878	7.950043	-0.066374
261	1	49.474254	9.339330	4.104775
262	1	47.912330	5.354205	10.871467
263	1	49.396938	6.536416	1.424939
264	1	47.924962	7.963623	2.673486
265	1	46.478731	4.097918	6.901460
266	1	45.090636	0.114324	7.954956
267	1	46.512440	1.424929	9.264600
268	1	45.236749	2.701656	5.396220
269	1	49.274095	3.925779	9.608802
270	1	47.994444	10.788850	5.315961
271	1	49.416561	1.212956	6.739812
272	1	48.025371	2.733283	8.097257
273	1	46.784549	9.421183	6.726370
274	1	45.080700	5.477607	8.183460
275	1	46.623188	6.678019	9.483954
276	1	45.119549	8.261664	5.454540
277	1	49.337955	9.490170	9.489172
278	1	47.749879	5.355282	5.484431
279	1	49.370221	6.636776	6.774433
280	1	48.105338	8.138523	8.169827
281	1	52.162811	3.949739	1.320930
282	1	50.801215	10.769006	2.620034
283	1	52.214887	1.226359	4.058295
284	1	50.741115	2.762329	0.039525
285	1	54.759699	4.107717	4.153651
286	1	53.492611	0.003002	10.741926
287	1	54.822080	1.238307	1.439545
288	1	53.470894	2.560400	2.654494
289	1	52.092850	9.319707	1.320685
290	1	50.859159	5.371450	2.606543
291	1	52.128404	6.797550	4.131128
292	1	50.767978	7.950043	-0.066374
293	1	55.124354	9.339330	4.104775
294	1	53.562430	5.354205	10.871467
295	1	55.047038	6.536416	1.424939
296	1	53.575062	7.963623	2.673486
297	1	52.128831	4.097918	6.901460
298	1	50.740736	0.114324	7.954956
299	1	52.162540	1.424929	9.264600
300	1	50.886849	2.701656	5.396220
301	1	54.924195	3.925779	9.608802
302	1	53.644544	10.788850	5.315961
303	1	55.066661	1.212956	6.739812
304	1	53.675471	2.733283	8.097257
305	1	52.434649	9.421183	6.726370
306	1	50.730800	5.477607	8.183460
307	1	52.273288	6.678019	9.483954
308	1	50.769649	8.261664	5.454540
309	1	54.988055	9.490170	9.489172
310	1	53.399979	5.355282	5.484431
311	1	55.020321	6.636776	6.774433
312	1	53.755438	8.138523	8.169827
313	1	57.812911	3.949739	1.320930
314	1	56.451315	10.769006	2.620034
315	1	57.864987	1.226359	4.058295
316	1	56.391215	2.762329	0.039525
317	1	60.409799	4.107717	4.153651
318	1	59.142711	0.003002	10.741926
319	1	60.472180	1.238307	1.439545
320	1	59.120994	2.560400	2.654494
321	1	57.742950	9.319707	1.320685
322	1	56.509259	5.371450	2.606543
323	1	57.778504	6.797550	4.131128
324	1	56.418078	7.950043	-0.066374
325	1	60.774454	9.339330	4.104775
326	1	59.212530	5.354205	10.871467
327	1	60.697138	6.536416	1.424939
328	1	59.225162	7.963623	2.673486
329	1	57.778931	4.097918	6.901460
330	1	56.390836	0.114324	7.954956
331	1	57.812640	1.424929	9.264600
332	1	56.536949	2.701656	5.396220
333	1	60.574295	3.925779	9.608802
334	1	59.294644	10.788850	5.315961
335	1	60.716761	1.212956	6.739812
336	1	59.325571	2.733283	8.097257
337	1	58.084749	9.421183	6.726370
338	1	56.380900	5.477607	8.183460
339	1	57.923388	6.678019	9.483954
340	1	56.419749	8.261664	5.454540
341	1	60.638155	9.490170	9.489172
342	1	59.050079	5.355282	5.484431
343	1	60.670421	6.636776	6.774433
344	1	59.405538	8.138523	8.169827
345	1	63.463011	3.949739	1.320930
346	1	62.101415	10.769006	2.620034
347	1	63.515087	1.226359	4.058295
348	1	62.041315	2.762329	0.039525
349	1	66.059899	4.107717	4.153651
350	1	64.792811	0.003002	10.741926
351	1	66.122280	1.238307	1.439545
352	1	64.771094	2.560400	2.654494
353	1	63.393050	9.319707	1.320685
354	1	62.159359	5.371450	2.606543
355	1	63.428604	6.797550	4.131128
356	1	62.068178	7.950043	-0.066374
357	1	66.424554	9.339330	4.104775
358	1	64.862630	5.354205	10.871467
359	1	66.347238	6.536416	1.424939
360	1	64.875262	7.963623	2.673486
361	1	63.429031	4.097918	6.901460
362	1	62.040936	0.114324	7.954956
363	1	63.462740	1.424929	9.264600
364	1	62.187049	2.701656	5.396220
365	1	66.224395	3.925779	9.608802
366	1	64.944744	10.788850	5.315961
367	1	66.366861	1.212956	6.739812
368	1	64.975671	2.733283	8.097257
369	1	63.734849	9.421183	6.726370
370	1	62.031000	5.477607	8.183460
371	1	63.573488	6.678019	9.483954
372	1	62.069849	8.261664	5.454540
373	1	66.288255	9.490170	9.489172
374	1	64.700179	5.355282	5.484431
375	1	66.320521	6.636776	6.774433
376	1	65.055638	8.138523	8.169827
377	1	69.113111	3.949739	1.320930
378	1	67.751515	10.769006	2.620034
379	1	69.165187	1.226359	4.058295
380	1	67.691415	2.762329	0.039525
381	1	71.709999	4.107717	4.153651
382	1	70.442911	0.003002	10.741926
383	1	71.772380	1.238307	1.439545
384	1	70.421194	2.560400	2.654494
385	1	69.043150	9.319707	1.320685
386	1	67.809459	5.371450	2.606543
387	1	69.078704	6.797550	4.131128
388	1	67.718278	7.950043	-0.066374
389	1	72.074654	9.339330	4.104775
390	1	70.512730	5.354205	10.871467
391	1	71.997338	6.536416	1.424939
392	1	70.525362	7.963623	2.673486
393	1	69.079131	4.097918	6.901460
394	1	67.691036	0.114324	7.954956
395	1	69.112840	1.424929	9.264600
396	1	67.837149	2.701656	5.396220
397	1	71.874495	3.925779	9.608802
398	1	70.594844	10.788850	5.315961
399	1	72.016961	1.212956	6.739812
400	1	70.625771	2.733283	8.097257
401	1	69.384949	9.421183	6.726370
402	1	67.681100	5.477607	8.183460
403	1	69.223588	6.678019	9.483954
404	1	67.719949	8.261664	5.454540
405	1	71.938355	9.490170	9.489172
406	1	70.350279	5.355282	5.484431
407	1	71.970621	6.636776	6.774433
408	1	70.705738	8.138523	8.169827
409	1	74.763211	3.949739	1.320930
410	1	73.401615	10.769006	2.620034
411	1	74.815287	1.226359	4.058295
412	1	73.341515	2.762329	0.039525
413	1	77.360099	4.107717	4.153651
414	1	76.093011	0.003002	10.741926
415	1	77.422480	1.238307	1.439545
416	1	76.071294	2.560400	2.654494
417	1	74.693250	9.319707	1.320685
418	1	73.459559	5.371450	2.606543
419	1	74.728804	6.797550	4.131128
420	1	73.368378	7.950043	-0.066374
421	1	77.724754	9.339330	4.104775
422	1	76.162830	5.354205	10.871467
423	1	77.647438	6.536416	1.424939
424	1	76.175462	7.963623	2.673486
425	1	74.729231	4.097918	6.901460
426	1	73.341136	0.114324	7.954956
427	1	74.762940	1.424929	9.264600
428	1	73.487249	2.701656	5.396220
429	1	77.524595	3.925779	9.608802
430	1	76.244944	10.788850	5.315961
431	1	77.667061	1.212956	6.739812
432	1	76.275871	2.733283	8.097257
433	1	75.035049	9.421183	6.726370
434	1	73.331200	5.477607	8.183460
435	1	74.873688	6.678019	9.483954
436	1	73.370049	8.261664	5.454540
437	1	77.588455	9.490170	9.489172
438	1	76.000379	5.355282	5.484431
439	1	77.620721	6.636776	6.774433
440	1	76.355838	8.138523	8.169827
441	1	80.413312	3.949739	1.320930
442	1	79.051715	10.769006	2.620034
443	1	80.465388	1.226359	4.058295
444	1	78.991615	2.762329	0.039525
445	1	83.010199	4.107717	4.153651
446	1	81.743112	0.003002	10.741926
447	1	83.072580	1.238307	1.439545
448	1	81.721394	2.560400	2.654494
449	1	85.990022	3.258471	2.113481
450	1	84.554522	0.190628	2.876512
451	1	85.866379	1.703698	3.826253
452	1	84.540570	2.666120	0.138184
453	1	88.961772	4.312181	4.436161
454	1	87.124732	10.716280	10.954323
455	1	88.786520	1.086924	1.180919
456	1	88.513168	3.087333	2.391511
457	1	80.343351	9.319707	1.320685
458	1	79.109659	5.371450	2.606543
459	1	80.378905	6.797550	4.131128
460	1	79.018479	7.950043	-0.066374
461	1	83.374855	9.339330	4.104775
462	1	81.812931	5.354205	10.871467
463	1	83.297539	6.536416	1.424939
464	1	81.825562	7.963623	2.673486
465	1	85.779419	9.542641	1.600984
466	1	84.489507	5.133987	2.795859
467	1	85.759781	6.568750	3.986515
468	1	84.649631	8.196489	0.175571
469	1	88.809516	8.427799	4.305119
470	1	88.750638	6.017315	10.149523
471	1	88.589892	7.567839	1.025487
472	1	87.090306	7.972448	2.614752
473	1	80.379332	4.097918	6.901460
474	1	78.991237	0.114324	7.954956
475	1	80.413040	1.424929	9.264600
476	1	79.137349	2.701656	5.396220
477	1	83.174695	3.925779	9.608802
478	1	81.895045	10.788850	5.315961
479	1	83.317162	1.212956	6.739812
480	1	81.925972	2.733283	8.097257
481	1	85.763984	3.928130	6.788930
482	1	84.694739	10.573801	8.069376
483	1	85.814414	1.250227	9.557747
484	1	84.403229	2.706298	5.329402
485	1	88.799600	4.341810	8.663260
486	1	88.767926	10.186161	5.844656
487	1	88.876507	1.156933	7.484289
488	1	87.148672	2.711624	8.192510
489	1	80.685149	9.421183	6.726370
490	1	78.981301	5.477607	8.183460
491	1	80.523789	6.678019	9.483954
492	1	79.020149	8.261664	5.454540
493	1	83.238556	9.490170	9.489172
494	1	81.650479	5.355282	5.484431
495	1	83.270821	6.636776	6.774433
496	1	82.005939	8.138523	8.169827
497	1	86.143823	8.900612	7.096379
498	1	84.610674	5.349337	8.172726
499	1	85.871067	7.226122	8.948210
500	1	84.689243	8.028277	5.411642
501	1	88.783055	9.759661	9.681794
502	1	87.146720	5.224784	5.378819
503	1	88.800885	6.399777	6.550381
504	1	88.701775	8.148323	8.036583
505	2	90.969674	2.797587	0.823083
506	2	90.149402	10.551064	2.096464
507	2	91.021795	0.921201	2.726243
508	2	90.161852	2.083863	10.537089
509	2	92.747452	2.713460	2.675857
510	2	91.761087	10.782105	10.695922
511	2	92.693084	0.913485	0.871411
512	2	91.822366	1.840238	1.786868
513	2	94.557503	2.675211	0.857687
514	2	93.633024	0.014215	1.757355
515	2	94.596805	0.918257	2.640702
516	2	93.684886	1.734355	-0.034484
517	2	91.002178	6.237880	0.988989
518	2	90.146385	3.932156	1.463625
519	2	91.023785	4.576813	2.582503
520	2	90.250066	5.134268	0.291170
521	2	92.812517	6.294143	2.696122
522	2	92.000606	3.580042	-0.018786
523	2	92.871728	4.503756	0.901410
524	2	91.986272	5.408129	1.819043
525	2	94.558200	6.260990	0.913244
526	2	93.701079	3.591488	1.777450
527	2	94.558076	4.457002	2.697609
528	2	93.689916	5.371592	-0.011400
529	2	90.881242	9.858095	0.918326
530	2	90.055530	6.887635	2.082886
531	2	90.942664	8.074078	2.670485
532	2	89.911604	8.865611	0.118499
533	2	92.781074	9.901647	2.654682
534	2	91.795309	7.156735	0.031195
535	2	92.737213	8.065302	0.914075
536	2	91.853107	8.953187	1.736224
537	2	94.510116	9.890688	0.857821
538	2	93.681507	7.156177	1.800187
539	2	94.552186	8.056616	2.659694
540	2	93.620370	8.966666	10.747984
541	2	91.074462	2.687999	4.529499
542	2	90.247968	0.429343	5.012675
543	2	91.078877	1.044699	6.142492
544	2	90.289131	1.552746	3.889312
545	2	92.801327	2.772245	6.301437
546	2	92.015148	10.800861	3.552132
547	2	92.874223	0.958758	4.430665
548	2	92.024028	1.901256	5.377145
549	2	94.563888	2.707040	4.441457
550	2	93.662458	10.774142	5.304222
551	2	94.521796	0.943107	6.239590
552	2	93.713782	1.835572	3.531716
553	2	90.917100	6.343416	4.414825
554	2	90.181171	3.377607	5.586763
555	2	90.884150	4.531486	6.375031
556	2	90.164616	5.565570	3.389662
557	2	92.705511	6.266064	6.291612
558	2	91.797785	3.620542	3.587715
559	2	92.688691	4.507335	4.489840
560	2	91.746264	5.434648	5.393893
561	2	94.512223	6.282826	4.494347
562	2	93.639990	3.667193	5.358215
563	2	94.537772	4.529672	6.249419
564	2	93.621687	5.393201	3.600414
565	2	91.069138	10.024834	4.349055
566	2	89.973644	7.231593	5.310726
567	2	90.915867	8.142474	6.175009
568	2	90.169449	9.293871	3.330837
569	2	92.754682	9.878460	6.246982
570	2	91.897009	7.257688	3.585451
571	2	92.760187	8.113663	4.454192
572	2	91.814288	9.040272	5.304463
573	2	94.557327	9.890076	4.425588
574	2	93.597623	7.156266	5.390701
575	2	94.535668	8.052946	6.261473
576	2	93.630720	8.986791	3.561092
577	2	90.989127	2.735999	8.101692
578	2	89.996595	0.170435	8.808668
579	2	90.903772	0.954502	9.768399
580	2	90.236257	2.161745	6.815893
581	2	92.768888	2.653709	9.819295
582	2	91.855784	0.072231	7.074903
583	2	92.770437	0.925814	8.035628
584	2	91.888450	1.804326	8.878892
585	2	94.518887	2.681385	8.030299
586	2	93.629344	10.678046	8.945253
587	2	94.562281	0.804996	9.802816
588	2	93.646847	1.813703	7.147777
589	2	90.889186	6.289050	8.172613
590	2	90.160878	3.308500	9.338679
591	2	91.052767	4.434680	9.986056
592	2	90.022849	5.282492	7.367436
593	2	92.757100	6.292232	9.902655
594	2	91.905560	3.681999	7.260745
595	2	92.759826	4.490223	8.126883
596	2	91.828710	5.369862	9.028510
597	2	94.534964	6.307319	8.055072
598	2	93.649167	3.577110	8.994294
599	2	94.580389	4.459292	9.854598
600	2	93.627852	5.388711	7.185680
601	2	90.874996	9.962827	7.961579
602	2	89.986898	7.140983	9.073577
603	2	90.854736	8.048905	9.934651
604	2	89.986560	9.114569	6.930268
605	2	92.706486	9.852443	9.838045
606	2	91.798921	7.189714	7.166512
607	2	92.665944	8.065566	8.053239
608	2	91.794287	9.021260	8.943086
609	2	94.493114	9.840580	8.061652
610	2	93.605204	7.147372	8.962967
611	2	94.503089	8.030430	9.826656
612	2	93.638864	8.976144	7.185047
613	2	96.326922	2.713460	2.675857
614	2	95.445300	10.782105	10.695922
615	2	96.272554	0.913485	0.871411
616	2	95.445300	1.840238	1.786868
617	2	98.136973	2.675211	0.857687
618	2	97.212494	0.014215	1.757355
619	2	98.176275	0.918257	2.640702
620	2	97.264356	1.734355	-0.034484
621	2	96.391987	6.294143	2.696122
622	2	95.445300	3.580042	-0.018786
623	2	96.451198	4.503756	0.901410
624	2	95.445300	5.408129	1.819043
625	2	98.137670	6.260990	0.913244
626	2	97.280549	3.591488	1.777450
627	2	98.137546	4.457002	2.697609
628	2	97.269386	5.371592	-0.011400
629	2	96.360544	9.901647	2.654682
630	2	95.445300	7.156735	0.031195
631	2	96.316683	8.065302	0.914075
632	2	95.445300	8.953187	1.736224
633	2	98.089586	9.890688	0.857821
634	2	97.260977	7.156177	1.800187
635	2	98.131656	8.056616	2.659694
636	2	97.199840	8.966666	10.747984
637	2	96.380797	2.772245	6.301437
638	2	95.445300	10.800861	3.552132
639	2	96.453693	0.958758	4.430665
640	2	95.445300	1.901256	5.377145
641	2	98.143358	2.707040	4.441457
642	2	97.241928	10.774142	5.304222
643	2	98.101266	0.943107	6.239590
644	2	97.293252	1.835572	3.531716
645	2	96.284981	6.266064	6.291612
646	2	95.445300	3.620542	3.587715
647	2	96.268161	4.507335	4.489840
648	2	95.445300	5.434648	5.393893
649	2	98.091693	6.282826	4.494347
650	2	97.219460	3.667193	5.358215
651	2	98.117242	4.529672	6.249419
652	2	97.201157	5.393201	3.600414
653	2	96.334152	9.878460	6.246982
654	2	95.445300	7.257688	3.585451
655	2	96.339657	8.113663	4.454192
656	2	95.445300	9.040272	5.304463
657	2	98.136797	9.890076	4.425588
658	2	97.177093	7.156266	5.390701
659	2	98.115138	8.052946	6.261473
660	2	97.210190	8.986791	3.561092
661	2	96.348358	2.653709	9.819295
662	2	95.445300	0.072231	7.074903
663	2	96.349907	0.925814	8.035628
664	2	95.445300	1.804326	8.878892
665	2	98.098357	2.681385	8.030299
666	2	97.208814	10.678046	8.945253
667	2	98.141751	0.804996	9.802816
668	2	97.226317	1.813703	7.147777
669	2	96.336570	6.292232	9.902655
670	2	95.445300	3.681999	7.260745
671	2	96.339296	4.490223	8.126883
672	2	95.445300	5.369862	9.028510
673	2	98.114434	6.307319	8.055072
674	2	97.228637	3.577110	8.994294
675	2	98.159859	4.459292	9.854598
676	2	97.207322	5.388711	7.185680
677	2	96.285956	9.852443	9.838045
678	2	95.445300	7.189714	7.166512
679	2	96.245414	8.065566	8.053239
680	2	95.445300	9.021260	8.943086
681	2	98.072584	9.840580	8.061652
682	2	97.184674	7.147372	8.962967
683	2	98.082559	8.030430	9.826656
684	2	97.218334	8.976144	7.185047
685	2	99.907822	2.713460	2.675857
686	2	99.026200	10.782105	10.695922
687	2	99.853454	0.913485	0.871411
688	2	99.026200	1.840238	1.786868
689	2	101.717873	2.675211	0.857687
690	2	100.793394	0.014215	1.757355
691	2	101.757175	0.918257	2.640702
692	2	100.845256	1.734355	-0.034484
693	2	99.972887	6.294143	2.696122
694	2	99.026200	3.580042	-0.018786
695	2	100.032098	4.503756	0.901410
696	2	99.026200	5.408129	1.819043
697	2	101.718570	6.260990	0.913244
698	2	100.861449	3.591488	1.777450
699	2	101.718446	4.457002	2.697609
700	2	100.850286	5.371592	-0.011400
701	2	99.941444	9.901647	2.654682
702	2	99.026200	7.156735	0.031195
703	2	99.897583	8.065302	0.914075
704	2	99.026200	8.953187	1.736224
705	2	101.670486	9.890688	0.857821
706	2	100.841877	7.156177	1.800187
707	2	101.712556	8.056616	2.659694
708	2	100.780740	8.966666	10.747984
709	2	99.961697	2.772245	6.301437
710	2	99.026200	10.800861	3.552132
711	2	100.034593	0.958758	4.430665
712	2	99.026200	1.901256	5.377145
713	2	101.724258	2.707040	4.441457
714	2	100.822828	10.774142	5.304222
715	2	101.682166	0.943107	6.239590
716	2	100.874152	1.835572	3.531716
717	2	99.865881	6.266064	6.291612
718	2	99.026200	3.620542	3.587715
719	2	99.849061	4.507335	4.489840
720	2	99.026200	5.434648	5.393893
721	2	101.672593	6.282826	4.494347
722	2	100.800360	3.667193	5.358215
723	2	101.698142	4.529672	6.249419
724	2	100.782057	5.393201	3.600414
725	2	99.915052	9.878460	6.246982
726	2	99.026200	7.257688	3.585451
727	2	99.920557	8.113663	4.454192
728	2	99.026200	9.040272	5.304463
729	2	101.717697	9.890076	4.425588
730	2	100.757993	7.156266	5.390701
731	2	101.696038	8.052946	6.261473
732	2	100.791090	8.986791	3.561092
733	2	99.929258	2.653709	9.819295
734	2	99.026200	0.072231	7.074903
735	2	99.930807	0.925814	8.035628
736	2	99.026200	1.804326	8.878892
737	2	101.679257	2.681385	8.030299
738	2	100.789714	10.678046	8.945253
739	2	101.722651	0.804996	9.802816
740	2	100.807217	1.813703	7.147777
741	2	99.917470	6.292232	9.902655
742	2	99.026200	3.681999	7.260745
743	2	99.920196	4.490223	8.126883
744	2	99.026200	5.369862	9.028510
745	2	101.695334	6.307319	8.055072
746	2	100.809537	3.577110	8.994294
747	2	101.740759	4.459292	9.854598
748	2	100.788222	5.388711	7.185680
749	2	99.866856	9.852443	9.838045
750	2	99.026200	7.189714	7.166512
751	2	99.826314	8.065566	8.053239
752	2	99.026200	9.021260	8.943086
753	2	101.653484	9.840580	8.061652
754	2	100.765574	7.147372	8.962967
755	2	101.663459	8.030430	9.826656
756	2	100.799234	8.976144	7.185047
757	2	103.488722	2.713460	2.675857
758	2	102.607100	10.782105	10.695922
759	2	103.434354	0.913485	0.871411
760	2	102.607100	1.840238	1.786868
761	2	105.298773	2.675211	0.857687
762	2	104.374294	0.014215	1.757355
763	2	105.338075	0.918257	2.640702
764	2	104.426156	1.734355	-0.034484
765	2	103.553787	6.294143	2.696122
766	2	102.607100	3.580042	-0.018786
767	2	103.612998	4.503756	0.901410
768	2	102.607100	5.408129	1.819043
769	2	105.299470	6.260990	0.913244
770	2	104.442349	3.591488	1.777450
771	2	105.299346	4.457002	2.697609
772	2	104.431186	5.371592	-0.011400
773	2	103.522344	9.901647	2.654682
774	2	102.607100	7.156735	0.031195
775	2	103.478483	8.065302	0.914075
776	2	102.607100	8.953187	1.736224
777	2	105.251386	9.890688	0.857821
778	2	104.422777	7.156177	1.800187
779	2	105.293456	8.056616	2.659694
780	2	104.361640	8.966666	10.747984
781	2	103.542597	2.772245	6.301437
782	2	102.607100	10.800861	3.552132
783	2	103.615493	0.958758	4.430665
784	2	102.607100	1.901256	5.377145
785	2	105.305158	2.707040	4.441457
786	2	104.403728	10.774142	5.304222
787	2	105.263066	0.943107	6.239590
788	2	104.455052	1.835572	3.531716
789	2	103.446781	6.266064	6.291612
790	2	102.607100	3.620542	3.587715
791	2	103.429961	4.507335	4.489840
792	2	102.607100	5.434648	5.393893
793	2	105.253493	6.282826	4.494347
794	2	104.381260	3.667193	5.358215
795	2	105.279042	4.529672	6.249419
796	2	104.362957	5.393201	3.600414
797	2	103.495952	9.878460	6.246982
798	2	102.607100	7.257688	3.585451
799	2	103.501457	8.113663	4.454192
800	2	102.607100	9.040272	5.304463
801	2	105.298597	9.890076	4.425588
802	2	104.338893	7.156266	5.390701
803	2	105.276938	8.052946	6.261473
804	2	104.371990	8.986791	3.561092
805	2	103.510158	2.653709	9.819295
806	2	102.607100	0.072231	7.074903
807	2	103.511707	0.925814	8.035628
808	2	102.607100	1.804326	8.878892
809	2	105.260157	2.681385	8.030299
810	2	104.370614	10.678046	8.945253
811	2	105.303551	0.804996	9.802816
812	2	104.388117	1.813703	7.147777
813	2	103.498370	6.292232	9.902655
814	2	102.607100	3.681999	7.260745
815	2	103.501096	4.490223	8.126883
816	2	102.607100	5.369862	9.028510
817	2	105.276234	6.307319	8.055072
818	2	104.390437	3.577110	8.994294
819	2	105.321659	4.459292	9.854598
820	2	104.369122	5.388711	7.185680
821	2	103.447756	9.852443	9.838045
822	2	102.607100	7.189714	7.166512
823	2	103.407214	8.065566	8.053239
824	2	102.607100	9.021260	8.943086
825	2	105.234384	9.840580	8.061652
826	2	104.346474	7.147372	8.962967
827	2	105.244359	8.030430	9.826656
828	2	104.380134	8.976144	7.185047
829	2	107.069622	2.713460	2.675857
830	2	106.188000	10.782105	10.695922
831	2	107.015254	0.913485	0.871411
832	2	106.188000	1.840238	1.786868
833	2	108.879673	2.675211	0.857687
834	2	107.955194	0.014215	1.757355
835	2	108.918975	0.918257	2.640702
836	2	108.007056	1.734355	-0.034484
837	2	107.134687	6.294143	2.696122
838	2	106.188000	3.580042	-0.018786
839	2	107.193898	4.503756	0.901410
840	2	106.188000	5.408129	1.819043
841	2	108.880370	6.260990	0.913244
842	2	108.023249	3.591488	1.777450
843	2	108.880246	4.457002	2.697609
844	2	108.012086	5.371592	-0.011400
845	2	107.103244	9.901647	2.654682
846	2	106.188000	7.156735	0.031195
847	2	107.059383	8.065302	0.914075
848	2	106.188000	8.953187	1.736224
849	2	108.832286	9.890688	0.857821
850	2	108.003677	7.156177	1.800187
851	2	108.874356	8.056616	2.659694
852	2	107.942540	8.966666	10.747984
853	2	107.123497	2.772245	6.301437
854	2	106.188000	10.800861	3.552132
855	2	107.196393	0.958758	4.430665
856	2	106.188000	1.901256	5.377145
857	2	108.886058	2.707040	4.441457
858	2	107.984628	10.774142	5.304222
859	2	108.843966	0.943107	6.239590
860	2	108.035952	1.835572	3.531716
861	2	107.027681	6.266064	6.291612
862	2	106.188000	3.620542	3.587715
863	2	107.010861	4.507335	4.489840
864	2	106.188000	5.434648	5.393893
865	2	108.834393	6.282826	4.494347
866	2	107.962160	3.667193	5.358215
867	2	108.859942	4.529672	6.249419
868	2	107.943857	5.393201	3.600414
869	2	107.076852	9.878460	6.246982
870	2	106.188000	7.257688	3.585451
871	2	107.082357	8.113663	4.454192
872	2	106.188000	9.040272	5.304463
873	2	108.879497	9.890076	4.425588